data input file to LAMMPS (read_data):  config_in_v04.txt
512 atoms
2 atom types
0 10.0793684 xlo xhi
0 10.0793684 ylo yhi
0 10.0793684 zlo zhi

Atoms

1	1	1	0.00	0.135632	5.21114	5.95439
2	1	1	0.00	9.60435	1.34293	0.792915
3	1	1	0.00	6.37441	5.45563	7.92596
4	1	1	0.00	9.06368	6.17842	2.71217
5	1	1	0.00	1.57723	6.00889	1.12578
6	1	1	0.00	7.78714	3.18577	1.11854
7	1	1	0.00	9.11137	2.07389	2.93834
8	1	1	0.00	5.91886	4.51162	7.58474
9	1	1	0.00	2.82755	6.78108	3.6569
10	1	1	0.00	0.73016	6.38027	0.29709
11	1	1	0.00	9.87464	6.94896	6.22954
12	1	1	0.00	9.57849	6.86021	5.14475
13	1	1	0.00	6.68775	4.24083	2.75619
14	1	1	0.00	3.115	5.71808	6.07345
15	1	1	0.00	2.21706	3.86728	3.73433
16	1	1	0.00	0.152043	7.79434	9.71838
17	1	1	0.00	0.689649	3.34206	1.27668
18	1	1	0.00	6.11029	8.81594	9.00306
19	1	1	0.00	2.81342	9.2541	5.0371
20	1	1	0.00	2.23448	7.92649	2.57371
21	1	1	0.00	0.627071	2.20269	4.16525
22	1	1	0.00	7.90805	8.55921	8.26477
23	1	1	0.00	2.25422	2.11718	1.41721
24	1	1	0.00	4.87331	4.53779	9.06215
25	1	1	0.00	1.70998	5.42683	3.84558
26	1	1	0.00	2.54427	9.8072	7.66026
27	1	1	0.00	7.91308	8.68618	1.24226
28	1	1	0.00	4.82642	5.51864	3.15911
29	1	1	0.00	5.03155	1.6051	0.570068
30	1	1	0.00	3.45886	6.35301	2.77536
31	1	1	0.00	7.28724	2.2299	6.92615
32	1	1	0.00	5.08522	6.95142	5.89275
33	1	1	0.00	9.5101	3.5498	6.04549
34	1	1	0.00	8.04615	9.36423	7.17165
35	1	1	0.00	4.38741	7.62135	7.92058
36	1	1	0.00	4.38177	0.356831	6.34878
37	1	1	0.00	8.44469	5.79548	9.93647
38	1	1	0.00	4.36021	8.10742	5.60366
39	1	1	0.00	9.90144	6.77474	2.59487
40	1	1	0.00	8.47552	6.12647	5.30301
41	1	1	0.00	8.80227	5.20738	6.08583
42	1	1	0.00	8.09997	5.40759	2.89146
43	1	1	0.00	4.15418	1.08092	1.01723
44	1	1	0.00	9.64945	4.43827	6.54259
45	1	1	0.00	0.952498	0.0129697	6.45897
46	1	1	0.00	3.89022	0.0375034	4.94817
47	1	1	0.00	7.0878	5.37541	6.91616
48	1	1	0.00	8.01829	0.38714	8.00417
49	1	1	0.00	9.86096	2.63881	1.08386
50	1	1	0.00	5.01838	6.48072	1.14758
51	1	1	0.00	1.98822	7.19928	9.50718
52	1	1	0.00	4.79357	9.76589	4.63754
53	1	1	0.00	6.89322	7.93783	2.20696
54	1	1	0.00	4.00231	3.37961	6.63153
55	1	1	0.00	0.0430812	9.40294	5.77542
56	1	1	0.00	5.9267	4.29347	9.40116
57	1	1	0.00	2.18765	6.12378	0.102341
58	1	1	0.00	3.73998	5.57425	5.29554
59	1	1	0.00	9.92116	3.36901	9.18574
60	1	1	0.00	6.19438	7.32574	1.23979
61	1	1	0.00	9.14698	3.65137	4.59664
62	1	1	0.00	0.718669	6.86485	3.67984
63	1	1	0.00	7.11177	4.11423	9.42755
64	1	1	0.00	6.37406	4.1008	3.80605
65	1	1	0.00	1.45426	6.81903	8.25556
66	1	1	0.00	5.07828	6.38061	10.0698
67	1	1	0.00	2.01153	1.56949	3.4972
68	1	1	0.00	8.89337	0.644809	6.42606
69	1	1	0.00	6.49735	1.45167	4.4239
70	1	1	0.00	8.70456	9.25117	1.66825
71	1	1	0.00	4.32298	6.71314	1.92955
72	1	1	0.00	1.87707	3.22621	9.11832
73	1	1	0.00	2.52096	8.94847	3.02753
74	1	1	0.00	8.36568	0.277186	2.66649
75	1	1	0.00	0.196605	9.74394	9.15668
76	1	1	0.00	0.422125	0.731594	7.22555
77	1	1	0.00	3.03528	4.23512	9.54207
78	1	1	0.00	5.05314	5.28132	0.552007
79	1	1	0.00	0.655326	8.82281	3.78949
80	1	1	0.00	2.97113	1.16415	4.00477
81	1	1	0.00	4.89553	9.6492	0.686783
82	1	1	0.00	0.36372	3.26837	4.46463
83	1	1	0.00	3.40724	4.77632	6.69498
84	1	1	0.00	9.13297	7.53457	6.83337
85	1	1	0.00	8.83701	3.33123	1.38133
86	1	1	0.00	6.65811	2.51171	1.80638
87	1	1	0.00	8.50661	9.92548	5.09054
88	1	1	0.00	7.42485	1.17794	4.14542
89	1	1	0.00	6.06484	7.36721	6.73167
90	1	1	0.00	8.24778	8.02225	4.18221
91	1	1	0.00	4.13119	7.04329	5.95673
92	1	1	0.00	6.79556	7.89794	9.61556
93	1	1	0.00	6.14872	7.62556	4.22467
94	1	1	0.00	5.95626	0.27693	9.5567
95	1	1	0.00	1.85285	3.48484	1.13187
96	1	1	0.00	0.0758811	8.38714	2.92538
97	1	1	0.00	4.61724	3.68009	2.53377
98	1	1	0.00	1.78116	0.00470444	5.6052
99	1	1	0.00	6.0402	1.68771	6.79226
100	1	1	0.00	3.1478	8.36129	5.54984
101	1	1	0.00	1.36116	3.47495	2.48099
102	1	1	0.00	5.51656	6.20441	6.60686
103	1	1	0.00	7.62928	0.89953	6.4627
104	1	1	0.00	1.93398	5.00066	5.70063
105	1	1	0.00	1.35167	6.55794	7.30923
106	1	1	0.00	8.21374	1.58195	3.45251
107	1	1	0.00	5.90166	0.287671	1.2019
108	1	1	0.00	9.64144	5.63616	8.91113
109	1	1	0.00	9.42257	5.33551	7.0305
110	1	1	0.00	0.470171	9.8357	3.63161
111	1	1	0.00	0.994633	4.41404	6.03285
112	1	1	0.00	5.7188	2.41556	4.11061
113	1	1	0.00	1.06971	1.6159	6.87743
114	1	1	0.00	1.78236	8.22565	8.56008
115	1	1	0.00	1.48703	8.97676	5.75652
116	1	1	0.00	1.0825	1.25773	0.301902
117	1	1	0.00	4.53408	7.32967	9.76211
118	1	1	0.00	7.3144	5.4201	2.15238
119	1	1	0.00	6.58114	6.6725	9.45505
120	1	1	0.00	4.53414	5.99075	7.63148
121	1	1	0.00	0.845062	5.82642	8.33309
122	1	1	0.00	1.38739	2.59703	3.12236
123	1	1	0.00	7.57661	5.82298	4.90007
124	1	1	0.00	8.13244	2.53458	3.15173
125	1	1	0.00	8.72851	2.10774	0.0273573
126	1	1	0.00	9.89929	5.19628	4.86843
127	1	1	0.00	6.83809	1.46674	5.96095
128	1	1	0.00	7.33231	3.52739	5.18552
129	1	1	0.00	9.67099	1.29515	9.53173
130	1	1	0.00	6.44895	9.85719	8.54093
131	1	1	0.00	3.19181	5.9894	4.32372
132	1	1	0.00	6.77852	2.91746	0.659241
133	1	1	0.00	3.82912	3.99293	1.55833
134	1	1	0.00	8.74075	1.30436	7.70431
135	1	1	0.00	8.20212	3.86811	4.1773
136	1	1	0.00	9.99228	5.93462	9.86952
137	1	1	0.00	8.22091	2.80296	4.15664
138	1	1	0.00	3.78924	4.22175	8.77274
139	1	1	0.00	9.98041	2.43704	6.04822
140	1	1	0.00	2.53399	9.12343	2.01671
141	1	1	0.00	9.18045	2.48947	1.96789
142	1	1	0.00	8.95911	8.76775	8.89382
143	1	1	0.00	8.09759	9.30888	2.63521
144	1	1	0.00	8.01524	3.06065	6.33234
145	1	1	0.00	8.83841	4.18023	2.28527
146	1	1	0.00	4.04187	3.74987	10.0533
147	1	1	0.00	8.26875	3.80725	0.291782
148	1	1	0.00	2.33182	1.5281	7.75757
149	1	1	0.00	8.43143	1.92256	6.85399
150	1	1	0.00	10.0419	7.04819	8.95333
151	1	1	0.00	6.6769	1.18911	8.43879
152	1	1	0.00	8.29381	9.60216	8.52649
153	1	1	0.00	5.84	6.38098	8.72105
154	1	1	0.00	10.0786	0.0712357	4.76076
155	1	1	0.00	2.68294	2.05716	4.55895
156	1	1	0.00	8.48274	2.98134	5.23749
157	1	1	0.00	5.86886	3.35657	0.438364
158	1	1	0.00	5.88961	0.796649	5.33906
159	1	1	0.00	0.209754	7.89506	1.96281
160	1	1	0.00	9.56312	6.42123	8.08844
161	1	1	0.00	4.49101	7.73075	6.55349
162	1	1	0.00	7.99959	6.85901	2.20383
163	1	1	0.00	2.92391	3.22584	1.6361
164	1	1	0.00	9.6931	2.13668	8.25494
165	1	1	0.00	7.84224	9.8057	1.45811
166	1	1	0.00	9.76653	9.33847	8.43897
167	1	1	0.00	6.9316	2.42847	4.14831
168	1	1	0.00	5.88941	8.84109	6.44317
169	1	1	0.00	0.147747	3.24485	0.274972
170	1	1	0.00	2.15729	6.40597	8.89026
171	1	1	0.00	4.31596	6.42419	4.58323
172	1	1	0.00	3.39259	7.34686	4.94607
173	1	1	0.00	6.58096	5.52095	9.53961
174	1	1	0.00	6.6027	9.44162	9.60075
175	1	1	0.00	3.33017	8.06651	2.1703
176	1	1	0.00	5.96809	7.41591	8.04447
177	1	1	0.00	4.20466	1.44532	6.48305
178	1	1	0.00	10.0468	1.94634	5.05086
179	1	1	0.00	7.52037	7.42783	8.76351
180	1	1	0.00	5.58627	7.91646	5.92999
181	1	1	0.00	3.99364	0.676321	8.00847
182	1	1	0.00	8.82116	6.20321	6.40324
183	1	1	0.00	1.3155	9.31005	4.70238
184	1	1	0.00	7.0794	9.28659	2.15462
185	1	1	0.00	5.76876	3.79231	6.87385
186	1	1	0.00	1.33261	7.45281	6.62242
187	1	1	0.00	4.8212	3.56193	7.62966
188	1	1	0.00	7.75606	5.57587	6.01107
189	1	1	0.00	1.57921	6.77531	2.37862
190	1	1	0.00	4.88324	1.94272	9.29617
191	1	1	0.00	0.555571	6.24087	5.83463
192	1	1	0.00	9.23099	3.12178	10.0335
193	1	1	0.00	4.27875	2.59142	0.0447112
194	1	1	0.00	9.48454	0.982248	5.45131
195	1	1	0.00	4.15811	6.38219	3.39613
196	1	1	0.00	9.91869	2.13536	0.224803
197	1	1	0.00	8.5768	7.46873	2.91479
198	1	1	0.00	8.17643	3.15558	9.10374
199	1	1	0.00	4.42855	6.37932	6.69397
200	1	1	0.00	5.84877	8.40719	1.49805
201	1	1	0.00	8.94635	1.86928	5.01929
202	1	1	0.00	0.0248269	7.35761	0.791237
203	1	1	0.00	9.49344	4.61241	8.93591
204	1	1	0.00	1.30473	2.51111	0.60152
205	1	1	0.00	4.89022	1.19951	7.70605
206	1	1	0.00	9.08642	2.16608	9.09947
207	1	1	0.00	1.52791	2.36133	6.06565
208	1	1	0.00	1.89214	4.75152	2.64173
209	1	1	0.00	2.5648	7.58059	4.26098
210	1	1	0.00	2.893	3.42183	8.58226
211	1	1	0.00	7.42044	4.17453	0.824517
212	1	1	0.00	9.38564	6.77505	0.265426
213	1	1	0.00	4.80059	1.35359	2.68353
214	1	1	0.00	8.41862	5.26298	8.90797
215	1	1	0.00	0.395409	4.46488	1.81314
216	1	1	0.00	5.60413	9.53129	7.9423
217	1	1	0.00	7.56208	1.84618	0.544049
218	1	1	0.00	2.4413	9.42308	6.63304
219	1	1	0.00	9.09604	6.39162	9.37416
220	1	1	0.00	4.94097	8.09862	0.659081
221	1	1	0.00	4.97094	4.42825	6.48744
222	1	1	0.00	0.548943	3.15273	5.79889
223	1	1	0.00	7.81019	7.78097	9.77792
224	1	1	0.00	1.96211	6.67967	6.33461
225	1	1	0.00	0.66439	2.27606	8.23818
226	1	1	0.00	3.55324	5.79953	1.85777
227	1	1	0.00	6.54393	9.04293	7.7956
228	1	1	0.00	0.631054	5.31245	3.73503
229	1	1	0.00	6.84862	0.0530915	0.434756
230	1	1	0.00	4.83747	9.1216	6.4096
231	1	1	0.00	7.09505	4.99287	0.318492
232	1	1	0.00	1.72836	4.28032	9.35139
233	1	1	0.00	2.12591	7.63421	5.27892
234	1	1	0.00	9.00054	3.57697	8.34006
235	1	1	0.00	3.06947	6.90615	5.85513
236	1	1	0.00	7.26596	9.06853	8.81927
237	1	1	0.00	0.325962	7.0728	7.83602
238	1	1	0.00	5.34939	6.21837	3.89559
239	1	1	0.00	7.61187	6.183	3.72284
240	1	1	0.00	4.98872	4.377	0.146207
241	1	1	0.00	4.94008	7.20053	4.52351
242	1	1	0.00	8.5828	4.66604	4.82948
243	1	1	0.00	0.922388	4.89399	7.60622
244	1	1	0.00	4.99506	3.28217	9.58261
245	1	1	0.00	0.891604	0.0623482	5.28837
246	1	1	0.00	6.26796	0.0272006	4.53178
247	1	1	0.00	9.8947	6.41902	1.32036
248	1	1	0.00	3.16871	4.87301	4.32371
249	1	1	0.00	3.65521	8.33177	4.48115
250	1	1	0.00	4.67405	8.89293	4.08375
251	1	1	0.00	6.23636	9.59456	3.14269
252	1	1	0.00	7.88682	6.27103	9.09217
253	1	1	0.00	9.29255	5.98992	3.67798
254	1	1	0.00	7.43524	0.698299	5.13183
255	1	1	0.00	0.65599	6.93842	1.67443
256	1	1	0.00	1.52222	7.31204	4.46614
257	1	2	0.00	9.54795	2.92387	5.10128
258	1	2	0.00	9.94745	8.7183	7.24261
259	1	2	0.00	6.75929	8.08056	8.33723
260	1	2	0.00	1.22235	5.35428	10.0408
261	1	2	0.00	8.91455	7.33731	4.49882
262	1	2	0.00	3.34381	5.35454	3.4508
263	1	2	0.00	8.13454	6.26201	7.95617
264	1	2	0.00	10.0957	3.13006	7.87794
265	1	2	0.00	4.78777	5.23868	5.90925
266	1	2	0.00	7.88713	6.46868	7.00496
267	1	2	0.00	1.40693	9.32069	7.08313
268	1	2	0.00	5.66704	2.00401	8.19708
269	1	2	0.00	6.41229	9.01141	4.78508
270	1	2	0.00	5.23374	1.28937	1.47892
271	1	2	0.00	5.85795	4.59766	1.49678
272	1	2	0.00	2.62949	4.65024	8.66575
273	1	2	0.00	8.51786	0.909035	4.95221
274	1	2	0.00	4.17874	8.75661	8.21736
275	1	2	0.00	8.07707	4.2921	2.97443
276	1	2	0.00	2.09109	0.197664	4.56658
277	1	2	0.00	0.0976716	9.4837	0.352425
278	1	2	0.00	2.41843	8.75547	4.01347
279	1	2	0.00	0.883608	4.12246	4.78215
280	1	2	0.00	0.0852029	9.18257	4.65547
281	1	2	0.00	1.50795	4.1204	7.91913
282	1	2	0.00	8.94577	5.75339	0.66151
283	1	2	0.00	6.92703	8.7125	5.94267
284	1	2	0.00	6.49709	5.59794	1.25259
285	1	2	0.00	1.61418	7.5629	3.47174
286	1	2	0.00	2.57361	2.04653	5.75182
287	1	2	0.00	8.09342	9.31379	3.85703
288	1	2	0.00	7.62992	3.67908	8.51262
289	1	2	0.00	3.08705	4.09411	5.25228
290	1	2	0.00	1.53893	7.12029	0.681117
291	1	2	0.00	2.47493	6.64776	5.12866
292	1	2	0.00	5.25975	2.60578	0.745691
293	1	2	0.00	9.05581	0.0786756	7.99824
294	1	2	0.00	8.55689	2.20423	1.02446
295	1	2	0.00	4.71351	5.69559	9.03566
296	1	2	0.00	0.564525	0.329322	10.0248
297	1	2	0.00	5.61101	5.2111	9.7137
298	1	2	0.00	4.01849	5.13773	0.956412
299	1	2	0.00	9.17117	2.76473	7.23546
300	1	2	0.00	8.14507	4.81702	10.0369
301	1	2	0.00	0.0923309	2.35394	3.22112
302	1	2	0.00	5.04455	0.827014	8.82166
303	1	2	0.00	9.52015	9.88338	3.01853
304	1	2	0.00	0.818397	0.723462	4.15793
305	1	2	0.00	8.94761	4.82751	3.30377
306	1	2	0.00	9.17357	8.16835	3.6261
307	1	2	0.00	2.05067	4.67959	4.75387
308	1	2	0.00	1.53287	9.89262	3.4156
309	1	2	0.00	8.30407	7.04901	6.20811
310	1	2	0.00	1.66296	3.51847	5.76712
311	1	2	0.00	7.15572	6.96779	0.450606
312	1	2	0.00	2.57471	0.838918	5.50471
313	1	2	0.00	0.359157	4.50348	9.97525
314	1	2	0.00	3.32866	2.09885	7.33323
315	1	2	0.00	6.06792	4.82177	0.477326
316	1	2	0.00	0.861683	1.40141	9.14804
317	1	2	0.00	1.02875	7.47776	9.09204
318	1	2	0.00	0.253427	3.35968	3.35553
319	1	2	0.00	3.49129	5.66929	7.54192
320	1	2	0.00	5.77232	1.31833	9.6913
321	1	2	0.00	7.5446	5.17246	7.98265
322	1	2	0.00	2.61551	3.09222	5.24957
323	1	2	0.00	2.92013	5.73335	8.49751
324	1	2	0.00	5.30907	4.66815	2.43706
325	1	2	0.00	4.35514	9.53592	7.58285
326	1	2	0.00	1.82728	5.34049	8.93519
327	1	2	0.00	0.982123	7.24311	5.37351
328	1	2	0.00	1.52388	1.20992	5.23373
329	1	2	0.00	0.355936	6.03001	6.86566
330	1	2	0.00	6.19403	5.36471	2.21752
331	1	2	0.00	9.24119	7.65874	5.73381
332	1	2	0.00	1.47743	5.14204	6.65377
333	1	2	0.00	4.38125	8.62038	7.21022
334	1	2	0.00	5.59489	3.67435	8.68998
335	1	2	0.00	1.16379	3.47388	10.0362
336	1	2	0.00	4.1247	5.38201	4.40097
337	1	2	0.00	0.849296	9.03151	8.16702
338	1	2	0.00	1.81331	4.46227	0.360716
339	1	2	0.00	10.0299	4.25344	2.8723
340	1	2	0.00	0.824015	2.62701	9.52453
341	1	2	0.00	1.73138	6.4463	3.41077
342	1	2	0.00	2.303	7.90862	0.801932
343	1	2	0.00	5.85911	9.09766	0.606042
344	1	2	0.00	5.12395	7.0688	7.19485
345	1	2	0.00	9.26662	0.883279	8.71389
346	1	2	0.00	0.811028	6.11056	2.92981
347	1	2	0.00	0.320773	6.35962	4.58953
348	1	2	0.00	3.05471	8.26086	6.61085
349	1	2	0.00	7.06709	6.57852	7.77276
350	1	2	0.00	7.56864	3.19512	7.29564
351	1	2	0.00	9.17967	3.23934	2.90665
352	1	2	0.00	8.04338	3.12702	2.20364
353	1	2	0.00	3.18594	8.15131	3.35378
354	1	2	0.00	4.94287	5.49506	1.85259
355	1	2	0.00	4.35839	2.1652	8.21093
356	1	2	0.00	1.56837	0.270964	7.1684
357	1	2	0.00	1.15515	6.36462	9.25244
358	1	2	0.00	6.28315	1.36202	2.21025
359	1	2	0.00	1.51692	8.36376	4.4209
360	1	2	0.00	5.43978	2.38697	2.75922
361	1	2	0.00	0.908161	2.63927	7.13398
362	1	2	0.00	7.85964	5.61331	0.684052
363	1	2	0.00	7.24203	8.72183	6.95486
364	1	2	0.00	2.89119	3.16767	9.73581
365	1	2	0.00	0.597032	1.4412	5.71722
366	1	2	0.00	3.27006	8.39079	7.56208
367	1	2	0.00	3.38954	2.3331	1.50676
368	1	2	0.00	0.182342	8.29798	5.46959
369	1	2	0.00	9.04404	4.5896	7.87031
370	1	2	0.00	1.21412	4.40917	3.64128
371	1	2	0.00	8.0673	10.0552	6.288
372	1	2	0.00	6.45777	1.24859	0.542925
373	1	2	0.00	8.1228	8.0143	6.86336
374	1	2	0.00	6.46534	2.14123	9.07226
375	1	2	0.00	6.81073	6.57023	1.4695
376	1	2	0.00	9.48838	2.28513	4.2564
377	1	2	0.00	5.2508	3.96142	3.43861
378	1	2	0.00	5.84263	0.62159	7.91092
379	1	2	0.00	1.82418	1.41043	2.03598
380	1	2	0.00	8.34035	2.60412	8.08994
381	1	2	0.00	2.00774	4.95487	7.671
382	1	2	0.00	3.06331	1.12112	0.0760904
383	1	2	0.00	2.15167	6.01395	7.87048
384	1	2	0.00	9.46732	8.74411	0.198693
385	1	2	0.00	4.99265	2.54011	7.25462
386	1	2	0.00	2.55108	5.20012	9.6774
387	1	2	0.00	8.05657	4.59707	1.87561
388	1	2	0.00	0.946614	5.30898	5.12182
389	1	2	0.00	7.65824	1.92133	5.23181
390	1	2	0.00	6.62433	9.91554	5.50983
391	1	2	0.00	8.32871	6.92666	10.0639
392	1	2	0.00	9.07849	8.62831	2.5956
393	1	2	0.00	8.57551	4.23037	9.14956
394	1	2	0.00	8.76452	7.69676	7.81064
395	1	2	0.00	3.60271	9.35302	6.51932
396	1	2	0.00	3.72214	4.92385	2.57455
397	1	2	0.00	8.4428	1.40869	5.88351
398	1	2	0.00	0.753286	4.79668	8.82526
399	1	2	0.00	8.18602	5.37236	7.15723
400	1	2	0.00	6.11908	5.40339	3.55105
401	1	2	0.00	5.20752	1.03725	6.67896
402	1	2	0.00	8.97476	5.6486	7.86616
403	1	2	0.00	9.97399	5.40188	0.629338
404	1	2	0.00	10.0663	1.28533	4.07322
405	1	2	0.00	9.1267	9.78168	5.94632
406	1	2	0.00	9.11833	4.71624	0.014086
407	1	2	0.00	5.55631	9.53826	5.6677
408	1	2	0.00	7.57312	7.45614	1.42695
409	1	2	0.00	6.73146	7.77201	5.66265
410	1	2	0.00	5.12866	0.195575	7.28058
411	1	2	0.00	2.91821	6.37159	6.83104
412	1	2	0.00	6.80097	2.06977	7.86483
413	1	2	0.00	6.78709	4.3375	6.90659
414	1	2	0.00	7.24549	6.8848	6.23575
415	1	2	0.00	5.79303	6.85487	5.00543
416	1	2	0.00	6.83118	8.7665	0.592422
417	1	2	0.00	9.94812	5.4236	2.68796
418	1	2	0.00	9.7649	8.04498	8.09089
419	1	2	0.00	8.93456	0.248074	1.64173
420	1	2	0.00	9.88564	0.446242	6.25231
421	1	2	0.00	4.2045	1.39088	9.95232
422	1	2	0.00	7.96453	2.08264	2.05196
423	1	2	0.00	1.09131	0.843463	3.02153
424	1	2	0.00	4.33166	1.92279	1.90205
425	1	2	0.00	6.3737	1.75821	3.43288
426	1	2	0.00	7.42644	1.14433	2.53517
427	1	2	0.00	8.42347	0.257369	3.68677
428	1	2	0.00	4.00089	1.81201	3.18879
429	1	2	0.00	2.00992	2.72091	6.8525
430	1	2	0.00	8.13373	1.31896	9.78505
431	1	2	0.00	5.81187	3.68256	2.31342
432	1	2	0.00	9.37294	7.42507	2.08474
433	1	2	0.00	7.01419	6.73524	5.06701
434	1	2	0.00	2.18803	8.61965	7.62679
435	1	2	0.00	9.5327	4.28853	0.991416
436	1	2	0.00	9.52401	3.82302	7.3169
437	1	2	0.00	7.0459	3.74821	1.78772
438	1	2	0.00	3.85501	3.92639	7.54811
439	1	2	0.00	7.77533	4.57334	6.33094
440	1	2	0.00	3.1589	3.92304	0.650912
441	1	2	0.00	5.27654	9.66173	8.96822
442	1	2	0.00	0.279191	4.1065	8.10752
443	1	2	0.00	9.06337	8.74643	6.52276
444	1	2	0.00	7.01554	1.42181	1.54433
445	1	2	0.00	1.08244	8.04362	7.51786
446	1	2	0.00	3.75164	7.30986	7.03426
447	1	2	0.00	7.69803	8.55353	4.78014
448	1	2	0.00	4.82831	0.497441	0.132172
449	1	2	0.00	7.76145	7.73111	7.7975
450	1	2	0.00	0.668565	7.8328	3.97457
451	1	2	0.00	9.89016	1.86226	7.37758
452	1	2	0.00	5.84901	2.40724	9.93913
453	1	2	0.00	0.705858	8.983	1.67835
454	1	2	0.00	9.65231	5.11107	1.71629
455	1	2	0.00	9.03837	2.58599	6.218
456	1	2	0.00	8.41977	4.04941	7.30355
457	1	2	0.00	3.73792	3.14686	9.10071
458	1	2	0.00	3.97288	8.19931	10.109
459	1	2	0.00	3.66305	7.31381	3.82939
460	1	2	0.00	7.89321	2.76231	10.0537
461	1	2	0.00	3.22719	6.97742	8.07396
462	1	2	0.00	0.117658	1.66294	2.02511
463	1	2	0.00	1.44698	6.29749	5.23074
464	1	2	0.00	5.47261	8.28624	7.30734
465	1	2	0.00	0.949735	3.33516	8.69157
466	1	2	0.00	6.2823	3.31257	9.37213
467	1	2	0.00	5.98967	5.95942	0.289884
468	1	2	0.00	9.46505	1.6548	6.29765
469	1	2	0.00	7.32058	3.46747	3.57055
470	1	2	0.00	6.02563	3.10694	3.25895
471	1	2	0.00	7.06017	1.10251	9.6689
472	1	2	0.00	0.0526622	7.70344	7.10112
473	1	2	0.00	8.744	8.55486	5.05905
474	1	2	0.00	7.49259	1.90233	9.22258
475	1	2	0.00	8.41099	5.68684	1.88943
476	1	2	0.00	0.92309	1.29013	8.00639
477	1	2	0.00	3.9018	0.0173664	0.78165
478	1	2	0.00	0.336727	9.5773	7.3053
479	1	2	0.00	2.43476	3.66305	7.63625
480	1	2	0.00	7.5864	9.94277	9.41892
481	1	2	0.00	0.417771	4.2588	6.94746
482	1	2	0.00	8.63609	1.29327	1.90196
483	1	2	0.00	7.93642	8.7674	6.12584
484	1	2	0.00	5.80803	0.230444	2.46202
485	1	2	0.00	2.56177	4.24106	1.46306
486	1	2	0.00	9.442	0.959634	2.49279
487	1	2	0.00	9.84577	7.37392	3.68531
488	1	2	0.00	8.44051	6.92925	8.61492
489	1	2	0.00	0.900076	8.55864	6.55769
490	1	2	0.00	5.14202	3.65258	1.61406
491	1	2	0.00	7.42655	7.33727	3.19853
492	1	2	0.00	0.0695509	0.327024	8.17046
493	1	2	0.00	5.30503	5.44716	8.11359
494	1	2	0.00	8.275	6.6254	1.03437
495	1	2	0.00	1.65823	2.7293	8.17226
496	1	2	0.00	3.13518	6.62173	9.06836
497	1	2	0.00	2.52265	3.81147	6.40078
498	1	2	0.00	8.89723	6.61251	7.41966
499	1	2	0.00	6.76641	4.9217	8.79851
500	1	2	0.00	8.41809	8.04176	1.93849
501	1	2	0.00	9.89475	3.11895	2.17238
502	1	2	0.00	7.09746	9.72897	6.54747
503	1	2	0.00	0.0655072	5.45946	7.79608
504	1	2	0.00	3.9797	5.02449	9.47387
505	1	2	0.00	8.68107	4.70013	1.08507
506	1	2	0.00	0.534352	5.68405	1.85845
507	1	2	0.00	1.40518	2.88206	5.0156
508	1	2	0.00	8.00459	7.62717	5.19079
509	1	2	0.00	8.91012	8.72009	7.56826
510	1	2	0.00	0.672168	7.57182	2.91293
511	1	2	0.00	6.01612	5.1535	6.61512
512	1	2	0.00	7.15443	7.69806	6.94166
