LAMMPS data file. CGCMM style. atom_style full generated by VMD/TopoTools v1.7 on Tue Aug 29 16:51:42 EDT 2017
 320 atoms
 256 bonds
 192 angles
 128 dihedrals
 0 impropers
 2 atom types
 2 bond types
 2 angle types
 1 dihedral types
 0 improper types
 -196.919998 203.080002  xlo xhi
 -200.000000 200.000000  ylo yhi
 -200.000000 200.000000  zlo zhi

# Pair Coeffs
#
# 1  CH2
# 2  CH3

# Bond Coeffs
#
# 1  CH2-CH2
# 2  CH2-CH3

# Angle Coeffs
#
# 1  CH2-CH2-CH2
# 2  CH2-CH2-CH3

# Dihedral Coeffs
#
# 1  CH2-CH2-CH2-CH3

 Masses

 1 14.026580 # CH2
 2 15.034520 # CH3

 Atoms # full

1 1 2 0.000000 -150.000000 -150.000000 -150.000000 # CH3 
2 1 1 0.000000 -148.460007 -150.000000 -150.000000 # CH2 
3 1 1 0.000000 -146.919998 -150.000000 -150.000000 # CH2 
4 1 1 0.000000 -145.380005 -150.000000 -150.000000 # CH2 
5 1 2 0.000000 -143.839996 -150.000000 -150.000000 # CH3 
6 1 2 0.000000 -150.000000 -150.000000 -50.000000 # CH3 
7 1 1 0.000000 -148.460007 -150.000000 -50.000000 # CH2 
8 1 1 0.000000 -146.919998 -150.000000 -50.000000 # CH2 
9 1 1 0.000000 -145.380005 -150.000000 -50.000000 # CH2 
10 1 2 0.000000 -143.839996 -150.000000 -50.000000 # CH3 
11 1 2 0.000000 -150.000000 -150.000000 50.000000 # CH3 
12 1 1 0.000000 -148.460007 -150.000000 50.000000 # CH2 
13 1 1 0.000000 -146.919998 -150.000000 50.000000 # CH2 
14 1 1 0.000000 -145.380005 -150.000000 50.000000 # CH2 
15 1 2 0.000000 -143.839996 -150.000000 50.000000 # CH3 
16 1 2 0.000000 -150.000000 -150.000000 150.000000 # CH3 
17 1 1 0.000000 -148.460007 -150.000000 150.000000 # CH2 
18 1 1 0.000000 -146.919998 -150.000000 150.000000 # CH2 
19 1 1 0.000000 -145.380005 -150.000000 150.000000 # CH2 
20 1 2 0.000000 -143.839996 -150.000000 150.000000 # CH3 
21 1 2 0.000000 -150.000000 -50.000000 -150.000000 # CH3 
22 1 1 0.000000 -148.460007 -50.000000 -150.000000 # CH2 
23 1 1 0.000000 -146.919998 -50.000000 -150.000000 # CH2 
24 1 1 0.000000 -145.380005 -50.000000 -150.000000 # CH2 
25 1 2 0.000000 -143.839996 -50.000000 -150.000000 # CH3 
26 1 2 0.000000 -150.000000 -50.000000 -50.000000 # CH3 
27 1 1 0.000000 -148.460007 -50.000000 -50.000000 # CH2 
28 1 1 0.000000 -146.919998 -50.000000 -50.000000 # CH2 
29 1 1 0.000000 -145.380005 -50.000000 -50.000000 # CH2 
30 1 2 0.000000 -143.839996 -50.000000 -50.000000 # CH3 
31 1 2 0.000000 -150.000000 -50.000000 50.000000 # CH3 
32 1 1 0.000000 -148.460007 -50.000000 50.000000 # CH2 
33 1 1 0.000000 -146.919998 -50.000000 50.000000 # CH2 
34 1 1 0.000000 -145.380005 -50.000000 50.000000 # CH2 
35 1 2 0.000000 -143.839996 -50.000000 50.000000 # CH3 
36 1 2 0.000000 -150.000000 -50.000000 150.000000 # CH3 
37 1 1 0.000000 -148.460007 -50.000000 150.000000 # CH2 
38 1 1 0.000000 -146.919998 -50.000000 150.000000 # CH2 
39 1 1 0.000000 -145.380005 -50.000000 150.000000 # CH2 
40 1 2 0.000000 -143.839996 -50.000000 150.000000 # CH3 
41 1 2 0.000000 -150.000000 50.000000 -150.000000 # CH3 
42 1 1 0.000000 -148.460007 50.000000 -150.000000 # CH2 
43 1 1 0.000000 -146.919998 50.000000 -150.000000 # CH2 
44 1 1 0.000000 -145.380005 50.000000 -150.000000 # CH2 
45 1 2 0.000000 -143.839996 50.000000 -150.000000 # CH3 
46 1 2 0.000000 -150.000000 50.000000 -50.000000 # CH3 
47 1 1 0.000000 -148.460007 50.000000 -50.000000 # CH2 
48 1 1 0.000000 -146.919998 50.000000 -50.000000 # CH2 
49 1 1 0.000000 -145.380005 50.000000 -50.000000 # CH2 
50 1 2 0.000000 -143.839996 50.000000 -50.000000 # CH3 
51 1 2 0.000000 -150.000000 50.000000 50.000000 # CH3 
52 1 1 0.000000 -148.460007 50.000000 50.000000 # CH2 
53 1 1 0.000000 -146.919998 50.000000 50.000000 # CH2 
54 1 1 0.000000 -145.380005 50.000000 50.000000 # CH2 
55 1 2 0.000000 -143.839996 50.000000 50.000000 # CH3 
56 1 2 0.000000 -150.000000 50.000000 150.000000 # CH3 
57 1 1 0.000000 -148.460007 50.000000 150.000000 # CH2 
58 1 1 0.000000 -146.919998 50.000000 150.000000 # CH2 
59 1 1 0.000000 -145.380005 50.000000 150.000000 # CH2 
60 1 2 0.000000 -143.839996 50.000000 150.000000 # CH3 
61 1 2 0.000000 -150.000000 150.000000 -150.000000 # CH3 
62 1 1 0.000000 -148.460007 150.000000 -150.000000 # CH2 
63 1 1 0.000000 -146.919998 150.000000 -150.000000 # CH2 
64 1 1 0.000000 -145.380005 150.000000 -150.000000 # CH2 
65 1 2 0.000000 -143.839996 150.000000 -150.000000 # CH3 
66 1 2 0.000000 -150.000000 150.000000 -50.000000 # CH3 
67 1 1 0.000000 -148.460007 150.000000 -50.000000 # CH2 
68 1 1 0.000000 -146.919998 150.000000 -50.000000 # CH2 
69 1 1 0.000000 -145.380005 150.000000 -50.000000 # CH2 
70 1 2 0.000000 -143.839996 150.000000 -50.000000 # CH3 
71 1 2 0.000000 -150.000000 150.000000 50.000000 # CH3 
72 1 1 0.000000 -148.460007 150.000000 50.000000 # CH2 
73 1 1 0.000000 -146.919998 150.000000 50.000000 # CH2 
74 1 1 0.000000 -145.380005 150.000000 50.000000 # CH2 
75 1 2 0.000000 -143.839996 150.000000 50.000000 # CH3 
76 1 2 0.000000 -150.000000 150.000000 150.000000 # CH3 
77 1 1 0.000000 -148.460007 150.000000 150.000000 # CH2 
78 1 1 0.000000 -146.919998 150.000000 150.000000 # CH2 
79 1 1 0.000000 -145.380005 150.000000 150.000000 # CH2 
80 1 2 0.000000 -143.839996 150.000000 150.000000 # CH3 
81 1 2 0.000000 -50.000000 -150.000000 -150.000000 # CH3 
82 1 1 0.000000 -48.459999 -150.000000 -150.000000 # CH2 
83 1 1 0.000000 -46.919998 -150.000000 -150.000000 # CH2 
84 1 1 0.000000 -45.380001 -150.000000 -150.000000 # CH2 
85 1 2 0.000000 -43.840000 -150.000000 -150.000000 # CH3 
86 1 2 0.000000 -50.000000 -150.000000 -50.000000 # CH3 
87 1 1 0.000000 -48.459999 -150.000000 -50.000000 # CH2 
88 1 1 0.000000 -46.919998 -150.000000 -50.000000 # CH2 
89 1 1 0.000000 -45.380001 -150.000000 -50.000000 # CH2 
90 1 2 0.000000 -43.840000 -150.000000 -50.000000 # CH3 
91 1 2 0.000000 -50.000000 -150.000000 50.000000 # CH3 
92 1 1 0.000000 -48.459999 -150.000000 50.000000 # CH2 
93 1 1 0.000000 -46.919998 -150.000000 50.000000 # CH2 
94 1 1 0.000000 -45.380001 -150.000000 50.000000 # CH2 
95 1 2 0.000000 -43.840000 -150.000000 50.000000 # CH3 
96 1 2 0.000000 -50.000000 -150.000000 150.000000 # CH3 
97 1 1 0.000000 -48.459999 -150.000000 150.000000 # CH2 
98 1 1 0.000000 -46.919998 -150.000000 150.000000 # CH2 
99 1 1 0.000000 -45.380001 -150.000000 150.000000 # CH2 
100 1 2 0.000000 -43.840000 -150.000000 150.000000 # CH3 
101 1 2 0.000000 -50.000000 -50.000000 -150.000000 # CH3 
102 1 1 0.000000 -48.459999 -50.000000 -150.000000 # CH2 
103 1 1 0.000000 -46.919998 -50.000000 -150.000000 # CH2 
104 1 1 0.000000 -45.380001 -50.000000 -150.000000 # CH2 
105 1 2 0.000000 -43.840000 -50.000000 -150.000000 # CH3 
106 1 2 0.000000 -50.000000 -50.000000 -50.000000 # CH3 
107 1 1 0.000000 -48.459999 -50.000000 -50.000000 # CH2 
108 1 1 0.000000 -46.919998 -50.000000 -50.000000 # CH2 
109 1 1 0.000000 -45.380001 -50.000000 -50.000000 # CH2 
110 1 2 0.000000 -43.840000 -50.000000 -50.000000 # CH3 
111 1 2 0.000000 -50.000000 -50.000000 50.000000 # CH3 
112 1 1 0.000000 -48.459999 -50.000000 50.000000 # CH2 
113 1 1 0.000000 -46.919998 -50.000000 50.000000 # CH2 
114 1 1 0.000000 -45.380001 -50.000000 50.000000 # CH2 
115 1 2 0.000000 -43.840000 -50.000000 50.000000 # CH3 
116 1 2 0.000000 -50.000000 -50.000000 150.000000 # CH3 
117 1 1 0.000000 -48.459999 -50.000000 150.000000 # CH2 
118 1 1 0.000000 -46.919998 -50.000000 150.000000 # CH2 
119 1 1 0.000000 -45.380001 -50.000000 150.000000 # CH2 
120 1 2 0.000000 -43.840000 -50.000000 150.000000 # CH3 
121 1 2 0.000000 -50.000000 50.000000 -150.000000 # CH3 
122 1 1 0.000000 -48.459999 50.000000 -150.000000 # CH2 
123 1 1 0.000000 -46.919998 50.000000 -150.000000 # CH2 
124 1 1 0.000000 -45.380001 50.000000 -150.000000 # CH2 
125 1 2 0.000000 -43.840000 50.000000 -150.000000 # CH3 
126 1 2 0.000000 -50.000000 50.000000 -50.000000 # CH3 
127 1 1 0.000000 -48.459999 50.000000 -50.000000 # CH2 
128 1 1 0.000000 -46.919998 50.000000 -50.000000 # CH2 
129 1 1 0.000000 -45.380001 50.000000 -50.000000 # CH2 
130 1 2 0.000000 -43.840000 50.000000 -50.000000 # CH3 
131 1 2 0.000000 -50.000000 50.000000 50.000000 # CH3 
132 1 1 0.000000 -48.459999 50.000000 50.000000 # CH2 
133 1 1 0.000000 -46.919998 50.000000 50.000000 # CH2 
134 1 1 0.000000 -45.380001 50.000000 50.000000 # CH2 
135 1 2 0.000000 -43.840000 50.000000 50.000000 # CH3 
136 1 2 0.000000 -50.000000 50.000000 150.000000 # CH3 
137 1 1 0.000000 -48.459999 50.000000 150.000000 # CH2 
138 1 1 0.000000 -46.919998 50.000000 150.000000 # CH2 
139 1 1 0.000000 -45.380001 50.000000 150.000000 # CH2 
140 1 2 0.000000 -43.840000 50.000000 150.000000 # CH3 
141 1 2 0.000000 -50.000000 150.000000 -150.000000 # CH3 
142 1 1 0.000000 -48.459999 150.000000 -150.000000 # CH2 
143 1 1 0.000000 -46.919998 150.000000 -150.000000 # CH2 
144 1 1 0.000000 -45.380001 150.000000 -150.000000 # CH2 
145 1 2 0.000000 -43.840000 150.000000 -150.000000 # CH3 
146 1 2 0.000000 -50.000000 150.000000 -50.000000 # CH3 
147 1 1 0.000000 -48.459999 150.000000 -50.000000 # CH2 
148 1 1 0.000000 -46.919998 150.000000 -50.000000 # CH2 
149 1 1 0.000000 -45.380001 150.000000 -50.000000 # CH2 
150 1 2 0.000000 -43.840000 150.000000 -50.000000 # CH3 
151 1 2 0.000000 -50.000000 150.000000 50.000000 # CH3 
152 1 1 0.000000 -48.459999 150.000000 50.000000 # CH2 
153 1 1 0.000000 -46.919998 150.000000 50.000000 # CH2 
154 1 1 0.000000 -45.380001 150.000000 50.000000 # CH2 
155 1 2 0.000000 -43.840000 150.000000 50.000000 # CH3 
156 1 2 0.000000 -50.000000 150.000000 150.000000 # CH3 
157 1 1 0.000000 -48.459999 150.000000 150.000000 # CH2 
158 1 1 0.000000 -46.919998 150.000000 150.000000 # CH2 
159 1 1 0.000000 -45.380001 150.000000 150.000000 # CH2 
160 1 2 0.000000 -43.840000 150.000000 150.000000 # CH3 
161 1 2 0.000000 50.000000 -150.000000 -150.000000 # CH3 
162 1 1 0.000000 51.540001 -150.000000 -150.000000 # CH2 
163 1 1 0.000000 53.080002 -150.000000 -150.000000 # CH2 
164 1 1 0.000000 54.619999 -150.000000 -150.000000 # CH2 
165 1 2 0.000000 56.160000 -150.000000 -150.000000 # CH3 
166 1 2 0.000000 50.000000 -150.000000 -50.000000 # CH3 
167 1 1 0.000000 51.540001 -150.000000 -50.000000 # CH2 
168 1 1 0.000000 53.080002 -150.000000 -50.000000 # CH2 
169 1 1 0.000000 54.619999 -150.000000 -50.000000 # CH2 
170 1 2 0.000000 56.160000 -150.000000 -50.000000 # CH3 
171 1 2 0.000000 50.000000 -150.000000 50.000000 # CH3 
172 1 1 0.000000 51.540001 -150.000000 50.000000 # CH2 
173 1 1 0.000000 53.080002 -150.000000 50.000000 # CH2 
174 1 1 0.000000 54.619999 -150.000000 50.000000 # CH2 
175 1 2 0.000000 56.160000 -150.000000 50.000000 # CH3 
176 1 2 0.000000 50.000000 -150.000000 150.000000 # CH3 
177 1 1 0.000000 51.540001 -150.000000 150.000000 # CH2 
178 1 1 0.000000 53.080002 -150.000000 150.000000 # CH2 
179 1 1 0.000000 54.619999 -150.000000 150.000000 # CH2 
180 1 2 0.000000 56.160000 -150.000000 150.000000 # CH3 
181 1 2 0.000000 50.000000 -50.000000 -150.000000 # CH3 
182 1 1 0.000000 51.540001 -50.000000 -150.000000 # CH2 
183 1 1 0.000000 53.080002 -50.000000 -150.000000 # CH2 
184 1 1 0.000000 54.619999 -50.000000 -150.000000 # CH2 
185 1 2 0.000000 56.160000 -50.000000 -150.000000 # CH3 
186 1 2 0.000000 50.000000 -50.000000 -50.000000 # CH3 
187 1 1 0.000000 51.540001 -50.000000 -50.000000 # CH2 
188 1 1 0.000000 53.080002 -50.000000 -50.000000 # CH2 
189 1 1 0.000000 54.619999 -50.000000 -50.000000 # CH2 
190 1 2 0.000000 56.160000 -50.000000 -50.000000 # CH3 
191 1 2 0.000000 50.000000 -50.000000 50.000000 # CH3 
192 1 1 0.000000 51.540001 -50.000000 50.000000 # CH2 
193 1 1 0.000000 53.080002 -50.000000 50.000000 # CH2 
194 1 1 0.000000 54.619999 -50.000000 50.000000 # CH2 
195 1 2 0.000000 56.160000 -50.000000 50.000000 # CH3 
196 1 2 0.000000 50.000000 -50.000000 150.000000 # CH3 
197 1 1 0.000000 51.540001 -50.000000 150.000000 # CH2 
198 1 1 0.000000 53.080002 -50.000000 150.000000 # CH2 
199 1 1 0.000000 54.619999 -50.000000 150.000000 # CH2 
200 1 2 0.000000 56.160000 -50.000000 150.000000 # CH3 
201 1 2 0.000000 50.000000 50.000000 -150.000000 # CH3 
202 1 1 0.000000 51.540001 50.000000 -150.000000 # CH2 
203 1 1 0.000000 53.080002 50.000000 -150.000000 # CH2 
204 1 1 0.000000 54.619999 50.000000 -150.000000 # CH2 
205 1 2 0.000000 56.160000 50.000000 -150.000000 # CH3 
206 1 2 0.000000 50.000000 50.000000 -50.000000 # CH3 
207 1 1 0.000000 51.540001 50.000000 -50.000000 # CH2 
208 1 1 0.000000 53.080002 50.000000 -50.000000 # CH2 
209 1 1 0.000000 54.619999 50.000000 -50.000000 # CH2 
210 1 2 0.000000 56.160000 50.000000 -50.000000 # CH3 
211 1 2 0.000000 50.000000 50.000000 50.000000 # CH3 
212 1 1 0.000000 51.540001 50.000000 50.000000 # CH2 
213 1 1 0.000000 53.080002 50.000000 50.000000 # CH2 
214 1 1 0.000000 54.619999 50.000000 50.000000 # CH2 
215 1 2 0.000000 56.160000 50.000000 50.000000 # CH3 
216 1 2 0.000000 50.000000 50.000000 150.000000 # CH3 
217 1 1 0.000000 51.540001 50.000000 150.000000 # CH2 
218 1 1 0.000000 53.080002 50.000000 150.000000 # CH2 
219 1 1 0.000000 54.619999 50.000000 150.000000 # CH2 
220 1 2 0.000000 56.160000 50.000000 150.000000 # CH3 
221 1 2 0.000000 50.000000 150.000000 -150.000000 # CH3 
222 1 1 0.000000 51.540001 150.000000 -150.000000 # CH2 
223 1 1 0.000000 53.080002 150.000000 -150.000000 # CH2 
224 1 1 0.000000 54.619999 150.000000 -150.000000 # CH2 
225 1 2 0.000000 56.160000 150.000000 -150.000000 # CH3 
226 1 2 0.000000 50.000000 150.000000 -50.000000 # CH3 
227 1 1 0.000000 51.540001 150.000000 -50.000000 # CH2 
228 1 1 0.000000 53.080002 150.000000 -50.000000 # CH2 
229 1 1 0.000000 54.619999 150.000000 -50.000000 # CH2 
230 1 2 0.000000 56.160000 150.000000 -50.000000 # CH3 
231 1 2 0.000000 50.000000 150.000000 50.000000 # CH3 
232 1 1 0.000000 51.540001 150.000000 50.000000 # CH2 
233 1 1 0.000000 53.080002 150.000000 50.000000 # CH2 
234 1 1 0.000000 54.619999 150.000000 50.000000 # CH2 
235 1 2 0.000000 56.160000 150.000000 50.000000 # CH3 
236 1 2 0.000000 50.000000 150.000000 150.000000 # CH3 
237 1 1 0.000000 51.540001 150.000000 150.000000 # CH2 
238 1 1 0.000000 53.080002 150.000000 150.000000 # CH2 
239 1 1 0.000000 54.619999 150.000000 150.000000 # CH2 
240 1 2 0.000000 56.160000 150.000000 150.000000 # CH3 
241 1 2 0.000000 150.000000 -150.000000 -150.000000 # CH3 
242 1 1 0.000000 151.539993 -150.000000 -150.000000 # CH2 
243 1 1 0.000000 153.080002 -150.000000 -150.000000 # CH2 
244 1 1 0.000000 154.619995 -150.000000 -150.000000 # CH2 
245 1 2 0.000000 156.160004 -150.000000 -150.000000 # CH3 
246 1 2 0.000000 150.000000 -150.000000 -50.000000 # CH3 
247 1 1 0.000000 151.539993 -150.000000 -50.000000 # CH2 
248 1 1 0.000000 153.080002 -150.000000 -50.000000 # CH2 
249 1 1 0.000000 154.619995 -150.000000 -50.000000 # CH2 
250 1 2 0.000000 156.160004 -150.000000 -50.000000 # CH3 
251 1 2 0.000000 150.000000 -150.000000 50.000000 # CH3 
252 1 1 0.000000 151.539993 -150.000000 50.000000 # CH2 
253 1 1 0.000000 153.080002 -150.000000 50.000000 # CH2 
254 1 1 0.000000 154.619995 -150.000000 50.000000 # CH2 
255 1 2 0.000000 156.160004 -150.000000 50.000000 # CH3 
256 1 2 0.000000 150.000000 -150.000000 150.000000 # CH3 
257 1 1 0.000000 151.539993 -150.000000 150.000000 # CH2 
258 1 1 0.000000 153.080002 -150.000000 150.000000 # CH2 
259 1 1 0.000000 154.619995 -150.000000 150.000000 # CH2 
260 1 2 0.000000 156.160004 -150.000000 150.000000 # CH3 
261 1 2 0.000000 150.000000 -50.000000 -150.000000 # CH3 
262 1 1 0.000000 151.539993 -50.000000 -150.000000 # CH2 
263 1 1 0.000000 153.080002 -50.000000 -150.000000 # CH2 
264 1 1 0.000000 154.619995 -50.000000 -150.000000 # CH2 
265 1 2 0.000000 156.160004 -50.000000 -150.000000 # CH3 
266 1 2 0.000000 150.000000 -50.000000 -50.000000 # CH3 
267 1 1 0.000000 151.539993 -50.000000 -50.000000 # CH2 
268 1 1 0.000000 153.080002 -50.000000 -50.000000 # CH2 
269 1 1 0.000000 154.619995 -50.000000 -50.000000 # CH2 
270 1 2 0.000000 156.160004 -50.000000 -50.000000 # CH3 
271 1 2 0.000000 150.000000 -50.000000 50.000000 # CH3 
272 1 1 0.000000 151.539993 -50.000000 50.000000 # CH2 
273 1 1 0.000000 153.080002 -50.000000 50.000000 # CH2 
274 1 1 0.000000 154.619995 -50.000000 50.000000 # CH2 
275 1 2 0.000000 156.160004 -50.000000 50.000000 # CH3 
276 1 2 0.000000 150.000000 -50.000000 150.000000 # CH3 
277 1 1 0.000000 151.539993 -50.000000 150.000000 # CH2 
278 1 1 0.000000 153.080002 -50.000000 150.000000 # CH2 
279 1 1 0.000000 154.619995 -50.000000 150.000000 # CH2 
280 1 2 0.000000 156.160004 -50.000000 150.000000 # CH3 
281 1 2 0.000000 150.000000 50.000000 -150.000000 # CH3 
282 1 1 0.000000 151.539993 50.000000 -150.000000 # CH2 
283 1 1 0.000000 153.080002 50.000000 -150.000000 # CH2 
284 1 1 0.000000 154.619995 50.000000 -150.000000 # CH2 
285 1 2 0.000000 156.160004 50.000000 -150.000000 # CH3 
286 1 2 0.000000 150.000000 50.000000 -50.000000 # CH3 
287 1 1 0.000000 151.539993 50.000000 -50.000000 # CH2 
288 1 1 0.000000 153.080002 50.000000 -50.000000 # CH2 
289 1 1 0.000000 154.619995 50.000000 -50.000000 # CH2 
290 1 2 0.000000 156.160004 50.000000 -50.000000 # CH3 
291 1 2 0.000000 150.000000 50.000000 50.000000 # CH3 
292 1 1 0.000000 151.539993 50.000000 50.000000 # CH2 
293 1 1 0.000000 153.080002 50.000000 50.000000 # CH2 
294 1 1 0.000000 154.619995 50.000000 50.000000 # CH2 
295 1 2 0.000000 156.160004 50.000000 50.000000 # CH3 
296 1 2 0.000000 150.000000 50.000000 150.000000 # CH3 
297 1 1 0.000000 151.539993 50.000000 150.000000 # CH2 
298 1 1 0.000000 153.080002 50.000000 150.000000 # CH2 
299 1 1 0.000000 154.619995 50.000000 150.000000 # CH2 
300 1 2 0.000000 156.160004 50.000000 150.000000 # CH3 
301 1 2 0.000000 150.000000 150.000000 -150.000000 # CH3 
302 1 1 0.000000 151.539993 150.000000 -150.000000 # CH2 
303 1 1 0.000000 153.080002 150.000000 -150.000000 # CH2 
304 1 1 0.000000 154.619995 150.000000 -150.000000 # CH2 
305 1 2 0.000000 156.160004 150.000000 -150.000000 # CH3 
306 1 2 0.000000 150.000000 150.000000 -50.000000 # CH3 
307 1 1 0.000000 151.539993 150.000000 -50.000000 # CH2 
308 1 1 0.000000 153.080002 150.000000 -50.000000 # CH2 
309 1 1 0.000000 154.619995 150.000000 -50.000000 # CH2 
310 1 2 0.000000 156.160004 150.000000 -50.000000 # CH3 
311 1 2 0.000000 150.000000 150.000000 50.000000 # CH3 
312 1 1 0.000000 151.539993 150.000000 50.000000 # CH2 
313 1 1 0.000000 153.080002 150.000000 50.000000 # CH2 
314 1 1 0.000000 154.619995 150.000000 50.000000 # CH2 
315 1 2 0.000000 156.160004 150.000000 50.000000 # CH3 
316 1 2 0.000000 150.000000 150.000000 150.000000 # CH3 
317 1 1 0.000000 151.539993 150.000000 150.000000 # CH2 
318 1 1 0.000000 153.080002 150.000000 150.000000 # CH2 
319 1 1 0.000000 154.619995 150.000000 150.000000 # CH2 
320 1 2 0.000000 156.160004 150.000000 150.000000 # CH3 

 Bonds

1 2 1 2
2 1 2 3
3 1 3 4
4 2 4 5
5 2 6 7
6 1 7 8
7 1 8 9
8 2 9 10
9 2 11 12
10 1 12 13
11 1 13 14
12 2 14 15
13 2 16 17
14 1 17 18
15 1 18 19
16 2 19 20
17 2 21 22
18 1 22 23
19 1 23 24
20 2 24 25
21 2 26 27
22 1 27 28
23 1 28 29
24 2 29 30
25 2 31 32
26 1 32 33
27 1 33 34
28 2 34 35
29 2 36 37
30 1 37 38
31 1 38 39
32 2 39 40
33 2 41 42
34 1 42 43
35 1 43 44
36 2 44 45
37 2 46 47
38 1 47 48
39 1 48 49
40 2 49 50
41 2 51 52
42 1 52 53
43 1 53 54
44 2 54 55
45 2 56 57
46 1 57 58
47 1 58 59
48 2 59 60
49 2 61 62
50 1 62 63
51 1 63 64
52 2 64 65
53 2 66 67
54 1 67 68
55 1 68 69
56 2 69 70
57 2 71 72
58 1 72 73
59 1 73 74
60 2 74 75
61 2 76 77
62 1 77 78
63 1 78 79
64 2 79 80
65 2 81 82
66 1 82 83
67 1 83 84
68 2 84 85
69 2 86 87
70 1 87 88
71 1 88 89
72 2 89 90
73 2 91 92
74 1 92 93
75 1 93 94
76 2 94 95
77 2 96 97
78 1 97 98
79 1 98 99
80 2 99 100
81 2 101 102
82 1 102 103
83 1 103 104
84 2 104 105
85 2 106 107
86 1 107 108
87 1 108 109
88 2 109 110
89 2 111 112
90 1 112 113
91 1 113 114
92 2 114 115
93 2 116 117
94 1 117 118
95 1 118 119
96 2 119 120
97 2 121 122
98 1 122 123
99 1 123 124
100 2 124 125
101 2 126 127
102 1 127 128
103 1 128 129
104 2 129 130
105 2 131 132
106 1 132 133
107 1 133 134
108 2 134 135
109 2 136 137
110 1 137 138
111 1 138 139
112 2 139 140
113 2 141 142
114 1 142 143
115 1 143 144
116 2 144 145
117 2 146 147
118 1 147 148
119 1 148 149
120 2 149 150
121 2 151 152
122 1 152 153
123 1 153 154
124 2 154 155
125 2 156 157
126 1 157 158
127 1 158 159
128 2 159 160
129 2 161 162
130 1 162 163
131 1 163 164
132 2 164 165
133 2 166 167
134 1 167 168
135 1 168 169
136 2 169 170
137 2 171 172
138 1 172 173
139 1 173 174
140 2 174 175
141 2 176 177
142 1 177 178
143 1 178 179
144 2 179 180
145 2 181 182
146 1 182 183
147 1 183 184
148 2 184 185
149 2 186 187
150 1 187 188
151 1 188 189
152 2 189 190
153 2 191 192
154 1 192 193
155 1 193 194
156 2 194 195
157 2 196 197
158 1 197 198
159 1 198 199
160 2 199 200
161 2 201 202
162 1 202 203
163 1 203 204
164 2 204 205
165 2 206 207
166 1 207 208
167 1 208 209
168 2 209 210
169 2 211 212
170 1 212 213
171 1 213 214
172 2 214 215
173 2 216 217
174 1 217 218
175 1 218 219
176 2 219 220
177 2 221 222
178 1 222 223
179 1 223 224
180 2 224 225
181 2 226 227
182 1 227 228
183 1 228 229
184 2 229 230
185 2 231 232
186 1 232 233
187 1 233 234
188 2 234 235
189 2 236 237
190 1 237 238
191 1 238 239
192 2 239 240
193 2 241 242
194 1 242 243
195 1 243 244
196 2 244 245
197 2 246 247
198 1 247 248
199 1 248 249
200 2 249 250
201 2 251 252
202 1 252 253
203 1 253 254
204 2 254 255
205 2 256 257
206 1 257 258
207 1 258 259
208 2 259 260
209 2 261 262
210 1 262 263
211 1 263 264
212 2 264 265
213 2 266 267
214 1 267 268
215 1 268 269
216 2 269 270
217 2 271 272
218 1 272 273
219 1 273 274
220 2 274 275
221 2 276 277
222 1 277 278
223 1 278 279
224 2 279 280
225 2 281 282
226 1 282 283
227 1 283 284
228 2 284 285
229 2 286 287
230 1 287 288
231 1 288 289
232 2 289 290
233 2 291 292
234 1 292 293
235 1 293 294
236 2 294 295
237 2 296 297
238 1 297 298
239 1 298 299
240 2 299 300
241 2 301 302
242 1 302 303
243 1 303 304
244 2 304 305
245 2 306 307
246 1 307 308
247 1 308 309
248 2 309 310
249 2 311 312
250 1 312 313
251 1 313 314
252 2 314 315
253 2 316 317
254 1 317 318
255 1 318 319
256 2 319 320

 Angles

1 2 1 2 3
2 1 2 3 4
3 2 3 4 5
4 2 6 7 8
5 1 7 8 9
6 2 8 9 10
7 2 11 12 13
8 1 12 13 14
9 2 13 14 15
10 2 16 17 18
11 1 17 18 19
12 2 18 19 20
13 2 21 22 23
14 1 22 23 24
15 2 23 24 25
16 2 26 27 28
17 1 27 28 29
18 2 28 29 30
19 2 31 32 33
20 1 32 33 34
21 2 33 34 35
22 2 36 37 38
23 1 37 38 39
24 2 38 39 40
25 2 41 42 43
26 1 42 43 44
27 2 43 44 45
28 2 46 47 48
29 1 47 48 49
30 2 48 49 50
31 2 51 52 53
32 1 52 53 54
33 2 53 54 55
34 2 56 57 58
35 1 57 58 59
36 2 58 59 60
37 2 61 62 63
38 1 62 63 64
39 2 63 64 65
40 2 66 67 68
41 1 67 68 69
42 2 68 69 70
43 2 71 72 73
44 1 72 73 74
45 2 73 74 75
46 2 76 77 78
47 1 77 78 79
48 2 78 79 80
49 2 81 82 83
50 1 82 83 84
51 2 83 84 85
52 2 86 87 88
53 1 87 88 89
54 2 88 89 90
55 2 91 92 93
56 1 92 93 94
57 2 93 94 95
58 2 96 97 98
59 1 97 98 99
60 2 98 99 100
61 2 101 102 103
62 1 102 103 104
63 2 103 104 105
64 2 106 107 108
65 1 107 108 109
66 2 108 109 110
67 2 111 112 113
68 1 112 113 114
69 2 113 114 115
70 2 116 117 118
71 1 117 118 119
72 2 118 119 120
73 2 121 122 123
74 1 122 123 124
75 2 123 124 125
76 2 126 127 128
77 1 127 128 129
78 2 128 129 130
79 2 131 132 133
80 1 132 133 134
81 2 133 134 135
82 2 136 137 138
83 1 137 138 139
84 2 138 139 140
85 2 141 142 143
86 1 142 143 144
87 2 143 144 145
88 2 146 147 148
89 1 147 148 149
90 2 148 149 150
91 2 151 152 153
92 1 152 153 154
93 2 153 154 155
94 2 156 157 158
95 1 157 158 159
96 2 158 159 160
97 2 161 162 163
98 1 162 163 164
99 2 163 164 165
100 2 166 167 168
101 1 167 168 169
102 2 168 169 170
103 2 171 172 173
104 1 172 173 174
105 2 173 174 175
106 2 176 177 178
107 1 177 178 179
108 2 178 179 180
109 2 181 182 183
110 1 182 183 184
111 2 183 184 185
112 2 186 187 188
113 1 187 188 189
114 2 188 189 190
115 2 191 192 193
116 1 192 193 194
117 2 193 194 195
118 2 196 197 198
119 1 197 198 199
120 2 198 199 200
121 2 201 202 203
122 1 202 203 204
123 2 203 204 205
124 2 206 207 208
125 1 207 208 209
126 2 208 209 210
127 2 211 212 213
128 1 212 213 214
129 2 213 214 215
130 2 216 217 218
131 1 217 218 219
132 2 218 219 220
133 2 221 222 223
134 1 222 223 224
135 2 223 224 225
136 2 226 227 228
137 1 227 228 229
138 2 228 229 230
139 2 231 232 233
140 1 232 233 234
141 2 233 234 235
142 2 236 237 238
143 1 237 238 239
144 2 238 239 240
145 2 241 242 243
146 1 242 243 244
147 2 243 244 245
148 2 246 247 248
149 1 247 248 249
150 2 248 249 250
151 2 251 252 253
152 1 252 253 254
153 2 253 254 255
154 2 256 257 258
155 1 257 258 259
156 2 258 259 260
157 2 261 262 263
158 1 262 263 264
159 2 263 264 265
160 2 266 267 268
161 1 267 268 269
162 2 268 269 270
163 2 271 272 273
164 1 272 273 274
165 2 273 274 275
166 2 276 277 278
167 1 277 278 279
168 2 278 279 280
169 2 281 282 283
170 1 282 283 284
171 2 283 284 285
172 2 286 287 288
173 1 287 288 289
174 2 288 289 290
175 2 291 292 293
176 1 292 293 294
177 2 293 294 295
178 2 296 297 298
179 1 297 298 299
180 2 298 299 300
181 2 301 302 303
182 1 302 303 304
183 2 303 304 305
184 2 306 307 308
185 1 307 308 309
186 2 308 309 310
187 2 311 312 313
188 1 312 313 314
189 2 313 314 315
190 2 316 317 318
191 1 317 318 319
192 2 318 319 320

 Dihedrals

1 1 1 2 3 4
2 1 2 3 4 5
3 1 6 7 8 9
4 1 7 8 9 10
5 1 11 12 13 14
6 1 12 13 14 15
7 1 16 17 18 19
8 1 17 18 19 20
9 1 21 22 23 24
10 1 22 23 24 25
11 1 26 27 28 29
12 1 27 28 29 30
13 1 31 32 33 34
14 1 32 33 34 35
15 1 36 37 38 39
16 1 37 38 39 40
17 1 41 42 43 44
18 1 42 43 44 45
19 1 46 47 48 49
20 1 47 48 49 50
21 1 51 52 53 54
22 1 52 53 54 55
23 1 56 57 58 59
24 1 57 58 59 60
25 1 61 62 63 64
26 1 62 63 64 65
27 1 66 67 68 69
28 1 67 68 69 70
29 1 71 72 73 74
30 1 72 73 74 75
31 1 76 77 78 79
32 1 77 78 79 80
33 1 81 82 83 84
34 1 82 83 84 85
35 1 86 87 88 89
36 1 87 88 89 90
37 1 91 92 93 94
38 1 92 93 94 95
39 1 96 97 98 99
40 1 97 98 99 100
41 1 101 102 103 104
42 1 102 103 104 105
43 1 106 107 108 109
44 1 107 108 109 110
45 1 111 112 113 114
46 1 112 113 114 115
47 1 116 117 118 119
48 1 117 118 119 120
49 1 121 122 123 124
50 1 122 123 124 125
51 1 126 127 128 129
52 1 127 128 129 130
53 1 131 132 133 134
54 1 132 133 134 135
55 1 136 137 138 139
56 1 137 138 139 140
57 1 141 142 143 144
58 1 142 143 144 145
59 1 146 147 148 149
60 1 147 148 149 150
61 1 151 152 153 154
62 1 152 153 154 155
63 1 156 157 158 159
64 1 157 158 159 160
65 1 161 162 163 164
66 1 162 163 164 165
67 1 166 167 168 169
68 1 167 168 169 170
69 1 171 172 173 174
70 1 172 173 174 175
71 1 176 177 178 179
72 1 177 178 179 180
73 1 181 182 183 184
74 1 182 183 184 185
75 1 186 187 188 189
76 1 187 188 189 190
77 1 191 192 193 194
78 1 192 193 194 195
79 1 196 197 198 199
80 1 197 198 199 200
81 1 201 202 203 204
82 1 202 203 204 205
83 1 206 207 208 209
84 1 207 208 209 210
85 1 211 212 213 214
86 1 212 213 214 215
87 1 216 217 218 219
88 1 217 218 219 220
89 1 221 222 223 224
90 1 222 223 224 225
91 1 226 227 228 229
92 1 227 228 229 230
93 1 231 232 233 234
94 1 232 233 234 235
95 1 236 237 238 239
96 1 237 238 239 240
97 1 241 242 243 244
98 1 242 243 244 245
99 1 246 247 248 249
100 1 247 248 249 250
101 1 251 252 253 254
102 1 252 253 254 255
103 1 256 257 258 259
104 1 257 258 259 260
105 1 261 262 263 264
106 1 262 263 264 265
107 1 266 267 268 269
108 1 267 268 269 270
109 1 271 272 273 274
110 1 272 273 274 275
111 1 276 277 278 279
112 1 277 278 279 280
113 1 281 282 283 284
114 1 282 283 284 285
115 1 286 287 288 289
116 1 287 288 289 290
117 1 291 292 293 294
118 1 292 293 294 295
119 1 296 297 298 299
120 1 297 298 299 300
121 1 301 302 303 304
122 1 302 303 304 305
123 1 306 307 308 309
124 1 307 308 309 310
125 1 311 312 313 314
126 1 312 313 314 315
127 1 316 317 318 319
128 1 317 318 319 320

