LAMMPS data file. CGCMM style. atom_style full generated by VMD/TopoTools v1.7 on Tue Aug 29 16:44:11 EDT 2017
 256 atoms
 192 bonds
 128 angles
 64 dihedrals
 0 impropers
 2 atom types
 2 bond types
 1 angle types
 1 dihedral types
 0 improper types
 -197.690002 202.309998  xlo xhi
 -200.000000 200.000000  ylo yhi
 -200.000000 200.000000  zlo zhi

# Pair Coeffs
#
# 1  CH2
# 2  CH3

# Bond Coeffs
#
# 1  CH2-CH2
# 2  CH2-CH3

# Angle Coeffs
#
# 1  CH2-CH2-CH3

# Dihedral Coeffs
#
# 1  CH3-CH2-CH2-CH3

 Masses

 1 14.026580 # CH2
 2 15.034520 # CH3

 Atoms # full

1 1 2 0.000000 -150.000000 -150.000000 -150.000000 # CH3 
2 1 1 0.000000 -148.460007 -150.000000 -150.000000 # CH2 
3 1 1 0.000000 -146.919998 -150.000000 -150.000000 # CH2 
4 1 2 0.000000 -145.380005 -150.000000 -150.000000 # CH3 
5 1 2 0.000000 -150.000000 -150.000000 -50.000000 # CH3 
6 1 1 0.000000 -148.460007 -150.000000 -50.000000 # CH2 
7 1 1 0.000000 -146.919998 -150.000000 -50.000000 # CH2 
8 1 2 0.000000 -145.380005 -150.000000 -50.000000 # CH3 
9 1 2 0.000000 -150.000000 -150.000000 50.000000 # CH3 
10 1 1 0.000000 -148.460007 -150.000000 50.000000 # CH2 
11 1 1 0.000000 -146.919998 -150.000000 50.000000 # CH2 
12 1 2 0.000000 -145.380005 -150.000000 50.000000 # CH3 
13 1 2 0.000000 -150.000000 -150.000000 150.000000 # CH3 
14 1 1 0.000000 -148.460007 -150.000000 150.000000 # CH2 
15 1 1 0.000000 -146.919998 -150.000000 150.000000 # CH2 
16 1 2 0.000000 -145.380005 -150.000000 150.000000 # CH3 
17 1 2 0.000000 -150.000000 -50.000000 -150.000000 # CH3 
18 1 1 0.000000 -148.460007 -50.000000 -150.000000 # CH2 
19 1 1 0.000000 -146.919998 -50.000000 -150.000000 # CH2 
20 1 2 0.000000 -145.380005 -50.000000 -150.000000 # CH3 
21 1 2 0.000000 -150.000000 -50.000000 -50.000000 # CH3 
22 1 1 0.000000 -148.460007 -50.000000 -50.000000 # CH2 
23 1 1 0.000000 -146.919998 -50.000000 -50.000000 # CH2 
24 1 2 0.000000 -145.380005 -50.000000 -50.000000 # CH3 
25 1 2 0.000000 -150.000000 -50.000000 50.000000 # CH3 
26 1 1 0.000000 -148.460007 -50.000000 50.000000 # CH2 
27 1 1 0.000000 -146.919998 -50.000000 50.000000 # CH2 
28 1 2 0.000000 -145.380005 -50.000000 50.000000 # CH3 
29 1 2 0.000000 -150.000000 -50.000000 150.000000 # CH3 
30 1 1 0.000000 -148.460007 -50.000000 150.000000 # CH2 
31 1 1 0.000000 -146.919998 -50.000000 150.000000 # CH2 
32 1 2 0.000000 -145.380005 -50.000000 150.000000 # CH3 
33 1 2 0.000000 -150.000000 50.000000 -150.000000 # CH3 
34 1 1 0.000000 -148.460007 50.000000 -150.000000 # CH2 
35 1 1 0.000000 -146.919998 50.000000 -150.000000 # CH2 
36 1 2 0.000000 -145.380005 50.000000 -150.000000 # CH3 
37 1 2 0.000000 -150.000000 50.000000 -50.000000 # CH3 
38 1 1 0.000000 -148.460007 50.000000 -50.000000 # CH2 
39 1 1 0.000000 -146.919998 50.000000 -50.000000 # CH2 
40 1 2 0.000000 -145.380005 50.000000 -50.000000 # CH3 
41 1 2 0.000000 -150.000000 50.000000 50.000000 # CH3 
42 1 1 0.000000 -148.460007 50.000000 50.000000 # CH2 
43 1 1 0.000000 -146.919998 50.000000 50.000000 # CH2 
44 1 2 0.000000 -145.380005 50.000000 50.000000 # CH3 
45 1 2 0.000000 -150.000000 50.000000 150.000000 # CH3 
46 1 1 0.000000 -148.460007 50.000000 150.000000 # CH2 
47 1 1 0.000000 -146.919998 50.000000 150.000000 # CH2 
48 1 2 0.000000 -145.380005 50.000000 150.000000 # CH3 
49 1 2 0.000000 -150.000000 150.000000 -150.000000 # CH3 
50 1 1 0.000000 -148.460007 150.000000 -150.000000 # CH2 
51 1 1 0.000000 -146.919998 150.000000 -150.000000 # CH2 
52 1 2 0.000000 -145.380005 150.000000 -150.000000 # CH3 
53 1 2 0.000000 -150.000000 150.000000 -50.000000 # CH3 
54 1 1 0.000000 -148.460007 150.000000 -50.000000 # CH2 
55 1 1 0.000000 -146.919998 150.000000 -50.000000 # CH2 
56 1 2 0.000000 -145.380005 150.000000 -50.000000 # CH3 
57 1 2 0.000000 -150.000000 150.000000 50.000000 # CH3 
58 1 1 0.000000 -148.460007 150.000000 50.000000 # CH2 
59 1 1 0.000000 -146.919998 150.000000 50.000000 # CH2 
60 1 2 0.000000 -145.380005 150.000000 50.000000 # CH3 
61 1 2 0.000000 -150.000000 150.000000 150.000000 # CH3 
62 1 1 0.000000 -148.460007 150.000000 150.000000 # CH2 
63 1 1 0.000000 -146.919998 150.000000 150.000000 # CH2 
64 1 2 0.000000 -145.380005 150.000000 150.000000 # CH3 
65 1 2 0.000000 -50.000000 -150.000000 -150.000000 # CH3 
66 1 1 0.000000 -48.459999 -150.000000 -150.000000 # CH2 
67 1 1 0.000000 -46.919998 -150.000000 -150.000000 # CH2 
68 1 2 0.000000 -45.380001 -150.000000 -150.000000 # CH3 
69 1 2 0.000000 -50.000000 -150.000000 -50.000000 # CH3 
70 1 1 0.000000 -48.459999 -150.000000 -50.000000 # CH2 
71 1 1 0.000000 -46.919998 -150.000000 -50.000000 # CH2 
72 1 2 0.000000 -45.380001 -150.000000 -50.000000 # CH3 
73 1 2 0.000000 -50.000000 -150.000000 50.000000 # CH3 
74 1 1 0.000000 -48.459999 -150.000000 50.000000 # CH2 
75 1 1 0.000000 -46.919998 -150.000000 50.000000 # CH2 
76 1 2 0.000000 -45.380001 -150.000000 50.000000 # CH3 
77 1 2 0.000000 -50.000000 -150.000000 150.000000 # CH3 
78 1 1 0.000000 -48.459999 -150.000000 150.000000 # CH2 
79 1 1 0.000000 -46.919998 -150.000000 150.000000 # CH2 
80 1 2 0.000000 -45.380001 -150.000000 150.000000 # CH3 
81 1 2 0.000000 -50.000000 -50.000000 -150.000000 # CH3 
82 1 1 0.000000 -48.459999 -50.000000 -150.000000 # CH2 
83 1 1 0.000000 -46.919998 -50.000000 -150.000000 # CH2 
84 1 2 0.000000 -45.380001 -50.000000 -150.000000 # CH3 
85 1 2 0.000000 -50.000000 -50.000000 -50.000000 # CH3 
86 1 1 0.000000 -48.459999 -50.000000 -50.000000 # CH2 
87 1 1 0.000000 -46.919998 -50.000000 -50.000000 # CH2 
88 1 2 0.000000 -45.380001 -50.000000 -50.000000 # CH3 
89 1 2 0.000000 -50.000000 -50.000000 50.000000 # CH3 
90 1 1 0.000000 -48.459999 -50.000000 50.000000 # CH2 
91 1 1 0.000000 -46.919998 -50.000000 50.000000 # CH2 
92 1 2 0.000000 -45.380001 -50.000000 50.000000 # CH3 
93 1 2 0.000000 -50.000000 -50.000000 150.000000 # CH3 
94 1 1 0.000000 -48.459999 -50.000000 150.000000 # CH2 
95 1 1 0.000000 -46.919998 -50.000000 150.000000 # CH2 
96 1 2 0.000000 -45.380001 -50.000000 150.000000 # CH3 
97 1 2 0.000000 -50.000000 50.000000 -150.000000 # CH3 
98 1 1 0.000000 -48.459999 50.000000 -150.000000 # CH2 
99 1 1 0.000000 -46.919998 50.000000 -150.000000 # CH2 
100 1 2 0.000000 -45.380001 50.000000 -150.000000 # CH3 
101 1 2 0.000000 -50.000000 50.000000 -50.000000 # CH3 
102 1 1 0.000000 -48.459999 50.000000 -50.000000 # CH2 
103 1 1 0.000000 -46.919998 50.000000 -50.000000 # CH2 
104 1 2 0.000000 -45.380001 50.000000 -50.000000 # CH3 
105 1 2 0.000000 -50.000000 50.000000 50.000000 # CH3 
106 1 1 0.000000 -48.459999 50.000000 50.000000 # CH2 
107 1 1 0.000000 -46.919998 50.000000 50.000000 # CH2 
108 1 2 0.000000 -45.380001 50.000000 50.000000 # CH3 
109 1 2 0.000000 -50.000000 50.000000 150.000000 # CH3 
110 1 1 0.000000 -48.459999 50.000000 150.000000 # CH2 
111 1 1 0.000000 -46.919998 50.000000 150.000000 # CH2 
112 1 2 0.000000 -45.380001 50.000000 150.000000 # CH3 
113 1 2 0.000000 -50.000000 150.000000 -150.000000 # CH3 
114 1 1 0.000000 -48.459999 150.000000 -150.000000 # CH2 
115 1 1 0.000000 -46.919998 150.000000 -150.000000 # CH2 
116 1 2 0.000000 -45.380001 150.000000 -150.000000 # CH3 
117 1 2 0.000000 -50.000000 150.000000 -50.000000 # CH3 
118 1 1 0.000000 -48.459999 150.000000 -50.000000 # CH2 
119 1 1 0.000000 -46.919998 150.000000 -50.000000 # CH2 
120 1 2 0.000000 -45.380001 150.000000 -50.000000 # CH3 
121 1 2 0.000000 -50.000000 150.000000 50.000000 # CH3 
122 1 1 0.000000 -48.459999 150.000000 50.000000 # CH2 
123 1 1 0.000000 -46.919998 150.000000 50.000000 # CH2 
124 1 2 0.000000 -45.380001 150.000000 50.000000 # CH3 
125 1 2 0.000000 -50.000000 150.000000 150.000000 # CH3 
126 1 1 0.000000 -48.459999 150.000000 150.000000 # CH2 
127 1 1 0.000000 -46.919998 150.000000 150.000000 # CH2 
128 1 2 0.000000 -45.380001 150.000000 150.000000 # CH3 
129 1 2 0.000000 50.000000 -150.000000 -150.000000 # CH3 
130 1 1 0.000000 51.540001 -150.000000 -150.000000 # CH2 
131 1 1 0.000000 53.080002 -150.000000 -150.000000 # CH2 
132 1 2 0.000000 54.619999 -150.000000 -150.000000 # CH3 
133 1 2 0.000000 50.000000 -150.000000 -50.000000 # CH3 
134 1 1 0.000000 51.540001 -150.000000 -50.000000 # CH2 
135 1 1 0.000000 53.080002 -150.000000 -50.000000 # CH2 
136 1 2 0.000000 54.619999 -150.000000 -50.000000 # CH3 
137 1 2 0.000000 50.000000 -150.000000 50.000000 # CH3 
138 1 1 0.000000 51.540001 -150.000000 50.000000 # CH2 
139 1 1 0.000000 53.080002 -150.000000 50.000000 # CH2 
140 1 2 0.000000 54.619999 -150.000000 50.000000 # CH3 
141 1 2 0.000000 50.000000 -150.000000 150.000000 # CH3 
142 1 1 0.000000 51.540001 -150.000000 150.000000 # CH2 
143 1 1 0.000000 53.080002 -150.000000 150.000000 # CH2 
144 1 2 0.000000 54.619999 -150.000000 150.000000 # CH3 
145 1 2 0.000000 50.000000 -50.000000 -150.000000 # CH3 
146 1 1 0.000000 51.540001 -50.000000 -150.000000 # CH2 
147 1 1 0.000000 53.080002 -50.000000 -150.000000 # CH2 
148 1 2 0.000000 54.619999 -50.000000 -150.000000 # CH3 
149 1 2 0.000000 50.000000 -50.000000 -50.000000 # CH3 
150 1 1 0.000000 51.540001 -50.000000 -50.000000 # CH2 
151 1 1 0.000000 53.080002 -50.000000 -50.000000 # CH2 
152 1 2 0.000000 54.619999 -50.000000 -50.000000 # CH3 
153 1 2 0.000000 50.000000 -50.000000 50.000000 # CH3 
154 1 1 0.000000 51.540001 -50.000000 50.000000 # CH2 
155 1 1 0.000000 53.080002 -50.000000 50.000000 # CH2 
156 1 2 0.000000 54.619999 -50.000000 50.000000 # CH3 
157 1 2 0.000000 50.000000 -50.000000 150.000000 # CH3 
158 1 1 0.000000 51.540001 -50.000000 150.000000 # CH2 
159 1 1 0.000000 53.080002 -50.000000 150.000000 # CH2 
160 1 2 0.000000 54.619999 -50.000000 150.000000 # CH3 
161 1 2 0.000000 50.000000 50.000000 -150.000000 # CH3 
162 1 1 0.000000 51.540001 50.000000 -150.000000 # CH2 
163 1 1 0.000000 53.080002 50.000000 -150.000000 # CH2 
164 1 2 0.000000 54.619999 50.000000 -150.000000 # CH3 
165 1 2 0.000000 50.000000 50.000000 -50.000000 # CH3 
166 1 1 0.000000 51.540001 50.000000 -50.000000 # CH2 
167 1 1 0.000000 53.080002 50.000000 -50.000000 # CH2 
168 1 2 0.000000 54.619999 50.000000 -50.000000 # CH3 
169 1 2 0.000000 50.000000 50.000000 50.000000 # CH3 
170 1 1 0.000000 51.540001 50.000000 50.000000 # CH2 
171 1 1 0.000000 53.080002 50.000000 50.000000 # CH2 
172 1 2 0.000000 54.619999 50.000000 50.000000 # CH3 
173 1 2 0.000000 50.000000 50.000000 150.000000 # CH3 
174 1 1 0.000000 51.540001 50.000000 150.000000 # CH2 
175 1 1 0.000000 53.080002 50.000000 150.000000 # CH2 
176 1 2 0.000000 54.619999 50.000000 150.000000 # CH3 
177 1 2 0.000000 50.000000 150.000000 -150.000000 # CH3 
178 1 1 0.000000 51.540001 150.000000 -150.000000 # CH2 
179 1 1 0.000000 53.080002 150.000000 -150.000000 # CH2 
180 1 2 0.000000 54.619999 150.000000 -150.000000 # CH3 
181 1 2 0.000000 50.000000 150.000000 -50.000000 # CH3 
182 1 1 0.000000 51.540001 150.000000 -50.000000 # CH2 
183 1 1 0.000000 53.080002 150.000000 -50.000000 # CH2 
184 1 2 0.000000 54.619999 150.000000 -50.000000 # CH3 
185 1 2 0.000000 50.000000 150.000000 50.000000 # CH3 
186 1 1 0.000000 51.540001 150.000000 50.000000 # CH2 
187 1 1 0.000000 53.080002 150.000000 50.000000 # CH2 
188 1 2 0.000000 54.619999 150.000000 50.000000 # CH3 
189 1 2 0.000000 50.000000 150.000000 150.000000 # CH3 
190 1 1 0.000000 51.540001 150.000000 150.000000 # CH2 
191 1 1 0.000000 53.080002 150.000000 150.000000 # CH2 
192 1 2 0.000000 54.619999 150.000000 150.000000 # CH3 
193 1 2 0.000000 150.000000 -150.000000 -150.000000 # CH3 
194 1 1 0.000000 151.539993 -150.000000 -150.000000 # CH2 
195 1 1 0.000000 153.080002 -150.000000 -150.000000 # CH2 
196 1 2 0.000000 154.619995 -150.000000 -150.000000 # CH3 
197 1 2 0.000000 150.000000 -150.000000 -50.000000 # CH3 
198 1 1 0.000000 151.539993 -150.000000 -50.000000 # CH2 
199 1 1 0.000000 153.080002 -150.000000 -50.000000 # CH2 
200 1 2 0.000000 154.619995 -150.000000 -50.000000 # CH3 
201 1 2 0.000000 150.000000 -150.000000 50.000000 # CH3 
202 1 1 0.000000 151.539993 -150.000000 50.000000 # CH2 
203 1 1 0.000000 153.080002 -150.000000 50.000000 # CH2 
204 1 2 0.000000 154.619995 -150.000000 50.000000 # CH3 
205 1 2 0.000000 150.000000 -150.000000 150.000000 # CH3 
206 1 1 0.000000 151.539993 -150.000000 150.000000 # CH2 
207 1 1 0.000000 153.080002 -150.000000 150.000000 # CH2 
208 1 2 0.000000 154.619995 -150.000000 150.000000 # CH3 
209 1 2 0.000000 150.000000 -50.000000 -150.000000 # CH3 
210 1 1 0.000000 151.539993 -50.000000 -150.000000 # CH2 
211 1 1 0.000000 153.080002 -50.000000 -150.000000 # CH2 
212 1 2 0.000000 154.619995 -50.000000 -150.000000 # CH3 
213 1 2 0.000000 150.000000 -50.000000 -50.000000 # CH3 
214 1 1 0.000000 151.539993 -50.000000 -50.000000 # CH2 
215 1 1 0.000000 153.080002 -50.000000 -50.000000 # CH2 
216 1 2 0.000000 154.619995 -50.000000 -50.000000 # CH3 
217 1 2 0.000000 150.000000 -50.000000 50.000000 # CH3 
218 1 1 0.000000 151.539993 -50.000000 50.000000 # CH2 
219 1 1 0.000000 153.080002 -50.000000 50.000000 # CH2 
220 1 2 0.000000 154.619995 -50.000000 50.000000 # CH3 
221 1 2 0.000000 150.000000 -50.000000 150.000000 # CH3 
222 1 1 0.000000 151.539993 -50.000000 150.000000 # CH2 
223 1 1 0.000000 153.080002 -50.000000 150.000000 # CH2 
224 1 2 0.000000 154.619995 -50.000000 150.000000 # CH3 
225 1 2 0.000000 150.000000 50.000000 -150.000000 # CH3 
226 1 1 0.000000 151.539993 50.000000 -150.000000 # CH2 
227 1 1 0.000000 153.080002 50.000000 -150.000000 # CH2 
228 1 2 0.000000 154.619995 50.000000 -150.000000 # CH3 
229 1 2 0.000000 150.000000 50.000000 -50.000000 # CH3 
230 1 1 0.000000 151.539993 50.000000 -50.000000 # CH2 
231 1 1 0.000000 153.080002 50.000000 -50.000000 # CH2 
232 1 2 0.000000 154.619995 50.000000 -50.000000 # CH3 
233 1 2 0.000000 150.000000 50.000000 50.000000 # CH3 
234 1 1 0.000000 151.539993 50.000000 50.000000 # CH2 
235 1 1 0.000000 153.080002 50.000000 50.000000 # CH2 
236 1 2 0.000000 154.619995 50.000000 50.000000 # CH3 
237 1 2 0.000000 150.000000 50.000000 150.000000 # CH3 
238 1 1 0.000000 151.539993 50.000000 150.000000 # CH2 
239 1 1 0.000000 153.080002 50.000000 150.000000 # CH2 
240 1 2 0.000000 154.619995 50.000000 150.000000 # CH3 
241 1 2 0.000000 150.000000 150.000000 -150.000000 # CH3 
242 1 1 0.000000 151.539993 150.000000 -150.000000 # CH2 
243 1 1 0.000000 153.080002 150.000000 -150.000000 # CH2 
244 1 2 0.000000 154.619995 150.000000 -150.000000 # CH3 
245 1 2 0.000000 150.000000 150.000000 -50.000000 # CH3 
246 1 1 0.000000 151.539993 150.000000 -50.000000 # CH2 
247 1 1 0.000000 153.080002 150.000000 -50.000000 # CH2 
248 1 2 0.000000 154.619995 150.000000 -50.000000 # CH3 
249 1 2 0.000000 150.000000 150.000000 50.000000 # CH3 
250 1 1 0.000000 151.539993 150.000000 50.000000 # CH2 
251 1 1 0.000000 153.080002 150.000000 50.000000 # CH2 
252 1 2 0.000000 154.619995 150.000000 50.000000 # CH3 
253 1 2 0.000000 150.000000 150.000000 150.000000 # CH3 
254 1 1 0.000000 151.539993 150.000000 150.000000 # CH2 
255 1 1 0.000000 153.080002 150.000000 150.000000 # CH2 
256 1 2 0.000000 154.619995 150.000000 150.000000 # CH3 

 Bonds

1 2 1 2
2 1 2 3
3 2 3 4
4 2 5 6
5 1 6 7
6 2 7 8
7 2 9 10
8 1 10 11
9 2 11 12
10 2 13 14
11 1 14 15
12 2 15 16
13 2 17 18
14 1 18 19
15 2 19 20
16 2 21 22
17 1 22 23
18 2 23 24
19 2 25 26
20 1 26 27
21 2 27 28
22 2 29 30
23 1 30 31
24 2 31 32
25 2 33 34
26 1 34 35
27 2 35 36
28 2 37 38
29 1 38 39
30 2 39 40
31 2 41 42
32 1 42 43
33 2 43 44
34 2 45 46
35 1 46 47
36 2 47 48
37 2 49 50
38 1 50 51
39 2 51 52
40 2 53 54
41 1 54 55
42 2 55 56
43 2 57 58
44 1 58 59
45 2 59 60
46 2 61 62
47 1 62 63
48 2 63 64
49 2 65 66
50 1 66 67
51 2 67 68
52 2 69 70
53 1 70 71
54 2 71 72
55 2 73 74
56 1 74 75
57 2 75 76
58 2 77 78
59 1 78 79
60 2 79 80
61 2 81 82
62 1 82 83
63 2 83 84
64 2 85 86
65 1 86 87
66 2 87 88
67 2 89 90
68 1 90 91
69 2 91 92
70 2 93 94
71 1 94 95
72 2 95 96
73 2 97 98
74 1 98 99
75 2 99 100
76 2 101 102
77 1 102 103
78 2 103 104
79 2 105 106
80 1 106 107
81 2 107 108
82 2 109 110
83 1 110 111
84 2 111 112
85 2 113 114
86 1 114 115
87 2 115 116
88 2 117 118
89 1 118 119
90 2 119 120
91 2 121 122
92 1 122 123
93 2 123 124
94 2 125 126
95 1 126 127
96 2 127 128
97 2 129 130
98 1 130 131
99 2 131 132
100 2 133 134
101 1 134 135
102 2 135 136
103 2 137 138
104 1 138 139
105 2 139 140
106 2 141 142
107 1 142 143
108 2 143 144
109 2 145 146
110 1 146 147
111 2 147 148
112 2 149 150
113 1 150 151
114 2 151 152
115 2 153 154
116 1 154 155
117 2 155 156
118 2 157 158
119 1 158 159
120 2 159 160
121 2 161 162
122 1 162 163
123 2 163 164
124 2 165 166
125 1 166 167
126 2 167 168
127 2 169 170
128 1 170 171
129 2 171 172
130 2 173 174
131 1 174 175
132 2 175 176
133 2 177 178
134 1 178 179
135 2 179 180
136 2 181 182
137 1 182 183
138 2 183 184
139 2 185 186
140 1 186 187
141 2 187 188
142 2 189 190
143 1 190 191
144 2 191 192
145 2 193 194
146 1 194 195
147 2 195 196
148 2 197 198
149 1 198 199
150 2 199 200
151 2 201 202
152 1 202 203
153 2 203 204
154 2 205 206
155 1 206 207
156 2 207 208
157 2 209 210
158 1 210 211
159 2 211 212
160 2 213 214
161 1 214 215
162 2 215 216
163 2 217 218
164 1 218 219
165 2 219 220
166 2 221 222
167 1 222 223
168 2 223 224
169 2 225 226
170 1 226 227
171 2 227 228
172 2 229 230
173 1 230 231
174 2 231 232
175 2 233 234
176 1 234 235
177 2 235 236
178 2 237 238
179 1 238 239
180 2 239 240
181 2 241 242
182 1 242 243
183 2 243 244
184 2 245 246
185 1 246 247
186 2 247 248
187 2 249 250
188 1 250 251
189 2 251 252
190 2 253 254
191 1 254 255
192 2 255 256

 Angles

1 1 1 2 3
2 1 2 3 4
3 1 5 6 7
4 1 6 7 8
5 1 9 10 11
6 1 10 11 12
7 1 13 14 15
8 1 14 15 16
9 1 17 18 19
10 1 18 19 20
11 1 21 22 23
12 1 22 23 24
13 1 25 26 27
14 1 26 27 28
15 1 29 30 31
16 1 30 31 32
17 1 33 34 35
18 1 34 35 36
19 1 37 38 39
20 1 38 39 40
21 1 41 42 43
22 1 42 43 44
23 1 45 46 47
24 1 46 47 48
25 1 49 50 51
26 1 50 51 52
27 1 53 54 55
28 1 54 55 56
29 1 57 58 59
30 1 58 59 60
31 1 61 62 63
32 1 62 63 64
33 1 65 66 67
34 1 66 67 68
35 1 69 70 71
36 1 70 71 72
37 1 73 74 75
38 1 74 75 76
39 1 77 78 79
40 1 78 79 80
41 1 81 82 83
42 1 82 83 84
43 1 85 86 87
44 1 86 87 88
45 1 89 90 91
46 1 90 91 92
47 1 93 94 95
48 1 94 95 96
49 1 97 98 99
50 1 98 99 100
51 1 101 102 103
52 1 102 103 104
53 1 105 106 107
54 1 106 107 108
55 1 109 110 111
56 1 110 111 112
57 1 113 114 115
58 1 114 115 116
59 1 117 118 119
60 1 118 119 120
61 1 121 122 123
62 1 122 123 124
63 1 125 126 127
64 1 126 127 128
65 1 129 130 131
66 1 130 131 132
67 1 133 134 135
68 1 134 135 136
69 1 137 138 139
70 1 138 139 140
71 1 141 142 143
72 1 142 143 144
73 1 145 146 147
74 1 146 147 148
75 1 149 150 151
76 1 150 151 152
77 1 153 154 155
78 1 154 155 156
79 1 157 158 159
80 1 158 159 160
81 1 161 162 163
82 1 162 163 164
83 1 165 166 167
84 1 166 167 168
85 1 169 170 171
86 1 170 171 172
87 1 173 174 175
88 1 174 175 176
89 1 177 178 179
90 1 178 179 180
91 1 181 182 183
92 1 182 183 184
93 1 185 186 187
94 1 186 187 188
95 1 189 190 191
96 1 190 191 192
97 1 193 194 195
98 1 194 195 196
99 1 197 198 199
100 1 198 199 200
101 1 201 202 203
102 1 202 203 204
103 1 205 206 207
104 1 206 207 208
105 1 209 210 211
106 1 210 211 212
107 1 213 214 215
108 1 214 215 216
109 1 217 218 219
110 1 218 219 220
111 1 221 222 223
112 1 222 223 224
113 1 225 226 227
114 1 226 227 228
115 1 229 230 231
116 1 230 231 232
117 1 233 234 235
118 1 234 235 236
119 1 237 238 239
120 1 238 239 240
121 1 241 242 243
122 1 242 243 244
123 1 245 246 247
124 1 246 247 248
125 1 249 250 251
126 1 250 251 252
127 1 253 254 255
128 1 254 255 256

 Dihedrals

1 1 1 2 3 4
2 1 5 6 7 8
3 1 9 10 11 12
4 1 13 14 15 16
5 1 17 18 19 20
6 1 21 22 23 24
7 1 25 26 27 28
8 1 29 30 31 32
9 1 33 34 35 36
10 1 37 38 39 40
11 1 41 42 43 44
12 1 45 46 47 48
13 1 49 50 51 52
14 1 53 54 55 56
15 1 57 58 59 60
16 1 61 62 63 64
17 1 65 66 67 68
18 1 69 70 71 72
19 1 73 74 75 76
20 1 77 78 79 80
21 1 81 82 83 84
22 1 85 86 87 88
23 1 89 90 91 92
24 1 93 94 95 96
25 1 97 98 99 100
26 1 101 102 103 104
27 1 105 106 107 108
28 1 109 110 111 112
29 1 113 114 115 116
30 1 117 118 119 120
31 1 121 122 123 124
32 1 125 126 127 128
33 1 129 130 131 132
34 1 133 134 135 136
35 1 137 138 139 140
36 1 141 142 143 144
37 1 145 146 147 148
38 1 149 150 151 152
39 1 153 154 155 156
40 1 157 158 159 160
41 1 161 162 163 164
42 1 165 166 167 168
43 1 169 170 171 172
44 1 173 174 175 176
45 1 177 178 179 180
46 1 181 182 183 184
47 1 185 186 187 188
48 1 189 190 191 192
49 1 193 194 195 196
50 1 197 198 199 200
51 1 201 202 203 204
52 1 205 206 207 208
53 1 209 210 211 212
54 1 213 214 215 216
55 1 217 218 219 220
56 1 221 222 223 224
57 1 225 226 227 228
58 1 229 230 231 232
59 1 233 234 235 236
60 1 237 238 239 240
61 1 241 242 243 244
62 1 245 246 247 248
63 1 249 250 251 252
64 1 253 254 255 256

