LAMMPS data file. CGCMM style. atom_style full generated by VMD/TopoTools v1.7 on Tue Aug 29 17:55:03 EDT 2017
 384 atoms
 384 bonds
 384 angles
 384 dihedrals
 0 impropers
 1 atom types
 1 bond types
 1 angle types
 1 dihedral types
 0 improper types
 -200.032997 199.967003  xlo xhi
 -199.999901 200.000099  ylo yhi
 -199.904434 200.095566  zlo zhi

# Pair Coeffs
#
# 1  CH2

# Bond Coeffs
#
# 1  CH2-CH2

# Angle Coeffs
#
# 1  CH2-CH2-CH2

# Dihedral Coeffs
#
# 1  CH2-CH2-CH2-CH2

 Masses

 1 14.026580 # CH2

 Atoms # full

1 1 1 0.000000 -148.943634 -150.956879 -149.883179 # CH2 
2 1 1 0.000000 -150.344971 -151.454285 -150.217484 # CH2 
3 1 1 0.000000 -151.359695 -150.320526 -150.306900 # CH2 
4 1 1 0.000000 -150.990387 -149.167038 -149.391205 # CH2 
5 1 1 0.000000 -149.655075 -148.545517 -149.783295 # CH2 
6 1 1 0.000000 -148.706299 -149.555695 -150.417664 # CH2 
7 1 1 0.000000 -148.943634 -150.956879 -49.883179 # CH2 
8 1 1 0.000000 -150.344971 -151.454285 -50.217480 # CH2 
9 1 1 0.000000 -151.359695 -150.320526 -50.306900 # CH2 
10 1 1 0.000000 -150.990387 -149.167038 -49.391201 # CH2 
11 1 1 0.000000 -149.655075 -148.545517 -49.783298 # CH2 
12 1 1 0.000000 -148.706299 -149.555695 -50.417660 # CH2 
13 1 1 0.000000 -148.943634 -150.956879 50.116821 # CH2 
14 1 1 0.000000 -150.344971 -151.454285 49.782520 # CH2 
15 1 1 0.000000 -151.359695 -150.320526 49.693100 # CH2 
16 1 1 0.000000 -150.990387 -149.167038 50.608799 # CH2 
17 1 1 0.000000 -149.655075 -148.545517 50.216702 # CH2 
18 1 1 0.000000 -148.706299 -149.555695 49.582340 # CH2 
19 1 1 0.000000 -148.943634 -150.956879 150.116821 # CH2 
20 1 1 0.000000 -150.344971 -151.454285 149.782516 # CH2 
21 1 1 0.000000 -151.359695 -150.320526 149.693100 # CH2 
22 1 1 0.000000 -150.990387 -149.167038 150.608795 # CH2 
23 1 1 0.000000 -149.655075 -148.545517 150.216705 # CH2 
24 1 1 0.000000 -148.706299 -149.555695 149.582336 # CH2 
25 1 1 0.000000 -148.943634 -50.956879 -149.883179 # CH2 
26 1 1 0.000000 -150.344971 -51.454281 -150.217484 # CH2 
27 1 1 0.000000 -151.359695 -50.320530 -150.306900 # CH2 
28 1 1 0.000000 -150.990387 -49.167042 -149.391205 # CH2 
29 1 1 0.000000 -149.655075 -48.545509 -149.783295 # CH2 
30 1 1 0.000000 -148.706299 -49.555698 -150.417664 # CH2 
31 1 1 0.000000 -148.943634 -50.956879 -49.883179 # CH2 
32 1 1 0.000000 -150.344971 -51.454281 -50.217480 # CH2 
33 1 1 0.000000 -151.359695 -50.320530 -50.306900 # CH2 
34 1 1 0.000000 -150.990387 -49.167042 -49.391201 # CH2 
35 1 1 0.000000 -149.655075 -48.545509 -49.783298 # CH2 
36 1 1 0.000000 -148.706299 -49.555698 -50.417660 # CH2 
37 1 1 0.000000 -148.943634 -50.956879 50.116821 # CH2 
38 1 1 0.000000 -150.344971 -51.454281 49.782520 # CH2 
39 1 1 0.000000 -151.359695 -50.320530 49.693100 # CH2 
40 1 1 0.000000 -150.990387 -49.167042 50.608799 # CH2 
41 1 1 0.000000 -149.655075 -48.545509 50.216702 # CH2 
42 1 1 0.000000 -148.706299 -49.555698 49.582340 # CH2 
43 1 1 0.000000 -148.943634 -50.956879 150.116821 # CH2 
44 1 1 0.000000 -150.344971 -51.454281 149.782516 # CH2 
45 1 1 0.000000 -151.359695 -50.320530 149.693100 # CH2 
46 1 1 0.000000 -150.990387 -49.167042 150.608795 # CH2 
47 1 1 0.000000 -149.655075 -48.545509 150.216705 # CH2 
48 1 1 0.000000 -148.706299 -49.555698 149.582336 # CH2 
49 1 1 0.000000 -148.943634 49.043121 -149.883179 # CH2 
50 1 1 0.000000 -150.344971 48.545719 -150.217484 # CH2 
51 1 1 0.000000 -151.359695 49.679470 -150.306900 # CH2 
52 1 1 0.000000 -150.990387 50.832958 -149.391205 # CH2 
53 1 1 0.000000 -149.655075 51.454491 -149.783295 # CH2 
54 1 1 0.000000 -148.706299 50.444302 -150.417664 # CH2 
55 1 1 0.000000 -148.943634 49.043121 -49.883179 # CH2 
56 1 1 0.000000 -150.344971 48.545719 -50.217480 # CH2 
57 1 1 0.000000 -151.359695 49.679470 -50.306900 # CH2 
58 1 1 0.000000 -150.990387 50.832958 -49.391201 # CH2 
59 1 1 0.000000 -149.655075 51.454491 -49.783298 # CH2 
60 1 1 0.000000 -148.706299 50.444302 -50.417660 # CH2 
61 1 1 0.000000 -148.943634 49.043121 50.116821 # CH2 
62 1 1 0.000000 -150.344971 48.545719 49.782520 # CH2 
63 1 1 0.000000 -151.359695 49.679470 49.693100 # CH2 
64 1 1 0.000000 -150.990387 50.832958 50.608799 # CH2 
65 1 1 0.000000 -149.655075 51.454491 50.216702 # CH2 
66 1 1 0.000000 -148.706299 50.444302 49.582340 # CH2 
67 1 1 0.000000 -148.943634 49.043121 150.116821 # CH2 
68 1 1 0.000000 -150.344971 48.545719 149.782516 # CH2 
69 1 1 0.000000 -151.359695 49.679470 149.693100 # CH2 
70 1 1 0.000000 -150.990387 50.832958 150.608795 # CH2 
71 1 1 0.000000 -149.655075 51.454491 150.216705 # CH2 
72 1 1 0.000000 -148.706299 50.444302 149.582336 # CH2 
73 1 1 0.000000 -148.943634 149.043121 -149.883179 # CH2 
74 1 1 0.000000 -150.344971 148.545715 -150.217484 # CH2 
75 1 1 0.000000 -151.359695 149.679474 -150.306900 # CH2 
76 1 1 0.000000 -150.990387 150.832962 -149.391205 # CH2 
77 1 1 0.000000 -149.655075 151.454483 -149.783295 # CH2 
78 1 1 0.000000 -148.706299 150.444305 -150.417664 # CH2 
79 1 1 0.000000 -148.943634 149.043121 -49.883179 # CH2 
80 1 1 0.000000 -150.344971 148.545715 -50.217480 # CH2 
81 1 1 0.000000 -151.359695 149.679474 -50.306900 # CH2 
82 1 1 0.000000 -150.990387 150.832962 -49.391201 # CH2 
83 1 1 0.000000 -149.655075 151.454483 -49.783298 # CH2 
84 1 1 0.000000 -148.706299 150.444305 -50.417660 # CH2 
85 1 1 0.000000 -148.943634 149.043121 50.116821 # CH2 
86 1 1 0.000000 -150.344971 148.545715 49.782520 # CH2 
87 1 1 0.000000 -151.359695 149.679474 49.693100 # CH2 
88 1 1 0.000000 -150.990387 150.832962 50.608799 # CH2 
89 1 1 0.000000 -149.655075 151.454483 50.216702 # CH2 
90 1 1 0.000000 -148.706299 150.444305 49.582340 # CH2 
91 1 1 0.000000 -148.943634 149.043121 150.116821 # CH2 
92 1 1 0.000000 -150.344971 148.545715 149.782516 # CH2 
93 1 1 0.000000 -151.359695 149.679474 149.693100 # CH2 
94 1 1 0.000000 -150.990387 150.832962 150.608795 # CH2 
95 1 1 0.000000 -149.655075 151.454483 150.216705 # CH2 
96 1 1 0.000000 -148.706299 150.444305 149.582336 # CH2 
97 1 1 0.000000 -48.943642 -150.956879 -149.883179 # CH2 
98 1 1 0.000000 -50.344971 -151.454285 -150.217484 # CH2 
99 1 1 0.000000 -51.359699 -150.320526 -150.306900 # CH2 
100 1 1 0.000000 -50.990391 -149.167038 -149.391205 # CH2 
101 1 1 0.000000 -49.655079 -148.545517 -149.783295 # CH2 
102 1 1 0.000000 -48.706299 -149.555695 -150.417664 # CH2 
103 1 1 0.000000 -48.943642 -150.956879 -49.883179 # CH2 
104 1 1 0.000000 -50.344971 -151.454285 -50.217480 # CH2 
105 1 1 0.000000 -51.359699 -150.320526 -50.306900 # CH2 
106 1 1 0.000000 -50.990391 -149.167038 -49.391201 # CH2 
107 1 1 0.000000 -49.655079 -148.545517 -49.783298 # CH2 
108 1 1 0.000000 -48.706299 -149.555695 -50.417660 # CH2 
109 1 1 0.000000 -48.943642 -150.956879 50.116821 # CH2 
110 1 1 0.000000 -50.344971 -151.454285 49.782520 # CH2 
111 1 1 0.000000 -51.359699 -150.320526 49.693100 # CH2 
112 1 1 0.000000 -50.990391 -149.167038 50.608799 # CH2 
113 1 1 0.000000 -49.655079 -148.545517 50.216702 # CH2 
114 1 1 0.000000 -48.706299 -149.555695 49.582340 # CH2 
115 1 1 0.000000 -48.943642 -150.956879 150.116821 # CH2 
116 1 1 0.000000 -50.344971 -151.454285 149.782516 # CH2 
117 1 1 0.000000 -51.359699 -150.320526 149.693100 # CH2 
118 1 1 0.000000 -50.990391 -149.167038 150.608795 # CH2 
119 1 1 0.000000 -49.655079 -148.545517 150.216705 # CH2 
120 1 1 0.000000 -48.706299 -149.555695 149.582336 # CH2 
121 1 1 0.000000 -48.943642 -50.956879 -149.883179 # CH2 
122 1 1 0.000000 -50.344971 -51.454281 -150.217484 # CH2 
123 1 1 0.000000 -51.359699 -50.320530 -150.306900 # CH2 
124 1 1 0.000000 -50.990391 -49.167042 -149.391205 # CH2 
125 1 1 0.000000 -49.655079 -48.545509 -149.783295 # CH2 
126 1 1 0.000000 -48.706299 -49.555698 -150.417664 # CH2 
127 1 1 0.000000 -48.943642 -50.956879 -49.883179 # CH2 
128 1 1 0.000000 -50.344971 -51.454281 -50.217480 # CH2 
129 1 1 0.000000 -51.359699 -50.320530 -50.306900 # CH2 
130 1 1 0.000000 -50.990391 -49.167042 -49.391201 # CH2 
131 1 1 0.000000 -49.655079 -48.545509 -49.783298 # CH2 
132 1 1 0.000000 -48.706299 -49.555698 -50.417660 # CH2 
133 1 1 0.000000 -48.943642 -50.956879 50.116821 # CH2 
134 1 1 0.000000 -50.344971 -51.454281 49.782520 # CH2 
135 1 1 0.000000 -51.359699 -50.320530 49.693100 # CH2 
136 1 1 0.000000 -50.990391 -49.167042 50.608799 # CH2 
137 1 1 0.000000 -49.655079 -48.545509 50.216702 # CH2 
138 1 1 0.000000 -48.706299 -49.555698 49.582340 # CH2 
139 1 1 0.000000 -48.943642 -50.956879 150.116821 # CH2 
140 1 1 0.000000 -50.344971 -51.454281 149.782516 # CH2 
141 1 1 0.000000 -51.359699 -50.320530 149.693100 # CH2 
142 1 1 0.000000 -50.990391 -49.167042 150.608795 # CH2 
143 1 1 0.000000 -49.655079 -48.545509 150.216705 # CH2 
144 1 1 0.000000 -48.706299 -49.555698 149.582336 # CH2 
145 1 1 0.000000 -48.943642 49.043121 -149.883179 # CH2 
146 1 1 0.000000 -50.344971 48.545719 -150.217484 # CH2 
147 1 1 0.000000 -51.359699 49.679470 -150.306900 # CH2 
148 1 1 0.000000 -50.990391 50.832958 -149.391205 # CH2 
149 1 1 0.000000 -49.655079 51.454491 -149.783295 # CH2 
150 1 1 0.000000 -48.706299 50.444302 -150.417664 # CH2 
151 1 1 0.000000 -48.943642 49.043121 -49.883179 # CH2 
152 1 1 0.000000 -50.344971 48.545719 -50.217480 # CH2 
153 1 1 0.000000 -51.359699 49.679470 -50.306900 # CH2 
154 1 1 0.000000 -50.990391 50.832958 -49.391201 # CH2 
155 1 1 0.000000 -49.655079 51.454491 -49.783298 # CH2 
156 1 1 0.000000 -48.706299 50.444302 -50.417660 # CH2 
157 1 1 0.000000 -48.943642 49.043121 50.116821 # CH2 
158 1 1 0.000000 -50.344971 48.545719 49.782520 # CH2 
159 1 1 0.000000 -51.359699 49.679470 49.693100 # CH2 
160 1 1 0.000000 -50.990391 50.832958 50.608799 # CH2 
161 1 1 0.000000 -49.655079 51.454491 50.216702 # CH2 
162 1 1 0.000000 -48.706299 50.444302 49.582340 # CH2 
163 1 1 0.000000 -48.943642 49.043121 150.116821 # CH2 
164 1 1 0.000000 -50.344971 48.545719 149.782516 # CH2 
165 1 1 0.000000 -51.359699 49.679470 149.693100 # CH2 
166 1 1 0.000000 -50.990391 50.832958 150.608795 # CH2 
167 1 1 0.000000 -49.655079 51.454491 150.216705 # CH2 
168 1 1 0.000000 -48.706299 50.444302 149.582336 # CH2 
169 1 1 0.000000 -48.943642 149.043121 -149.883179 # CH2 
170 1 1 0.000000 -50.344971 148.545715 -150.217484 # CH2 
171 1 1 0.000000 -51.359699 149.679474 -150.306900 # CH2 
172 1 1 0.000000 -50.990391 150.832962 -149.391205 # CH2 
173 1 1 0.000000 -49.655079 151.454483 -149.783295 # CH2 
174 1 1 0.000000 -48.706299 150.444305 -150.417664 # CH2 
175 1 1 0.000000 -48.943642 149.043121 -49.883179 # CH2 
176 1 1 0.000000 -50.344971 148.545715 -50.217480 # CH2 
177 1 1 0.000000 -51.359699 149.679474 -50.306900 # CH2 
178 1 1 0.000000 -50.990391 150.832962 -49.391201 # CH2 
179 1 1 0.000000 -49.655079 151.454483 -49.783298 # CH2 
180 1 1 0.000000 -48.706299 150.444305 -50.417660 # CH2 
181 1 1 0.000000 -48.943642 149.043121 50.116821 # CH2 
182 1 1 0.000000 -50.344971 148.545715 49.782520 # CH2 
183 1 1 0.000000 -51.359699 149.679474 49.693100 # CH2 
184 1 1 0.000000 -50.990391 150.832962 50.608799 # CH2 
185 1 1 0.000000 -49.655079 151.454483 50.216702 # CH2 
186 1 1 0.000000 -48.706299 150.444305 49.582340 # CH2 
187 1 1 0.000000 -48.943642 149.043121 150.116821 # CH2 
188 1 1 0.000000 -50.344971 148.545715 149.782516 # CH2 
189 1 1 0.000000 -51.359699 149.679474 149.693100 # CH2 
190 1 1 0.000000 -50.990391 150.832962 150.608795 # CH2 
191 1 1 0.000000 -49.655079 151.454483 150.216705 # CH2 
192 1 1 0.000000 -48.706299 150.444305 149.582336 # CH2 
193 1 1 0.000000 51.056358 -150.956879 -149.883179 # CH2 
194 1 1 0.000000 49.655029 -151.454285 -150.217484 # CH2 
195 1 1 0.000000 48.640301 -150.320526 -150.306900 # CH2 
196 1 1 0.000000 49.009609 -149.167038 -149.391205 # CH2 
197 1 1 0.000000 50.344921 -148.545517 -149.783295 # CH2 
198 1 1 0.000000 51.293701 -149.555695 -150.417664 # CH2 
199 1 1 0.000000 51.056358 -150.956879 -49.883179 # CH2 
200 1 1 0.000000 49.655029 -151.454285 -50.217480 # CH2 
201 1 1 0.000000 48.640301 -150.320526 -50.306900 # CH2 
202 1 1 0.000000 49.009609 -149.167038 -49.391201 # CH2 
203 1 1 0.000000 50.344921 -148.545517 -49.783298 # CH2 
204 1 1 0.000000 51.293701 -149.555695 -50.417660 # CH2 
205 1 1 0.000000 51.056358 -150.956879 50.116821 # CH2 
206 1 1 0.000000 49.655029 -151.454285 49.782520 # CH2 
207 1 1 0.000000 48.640301 -150.320526 49.693100 # CH2 
208 1 1 0.000000 49.009609 -149.167038 50.608799 # CH2 
209 1 1 0.000000 50.344921 -148.545517 50.216702 # CH2 
210 1 1 0.000000 51.293701 -149.555695 49.582340 # CH2 
211 1 1 0.000000 51.056358 -150.956879 150.116821 # CH2 
212 1 1 0.000000 49.655029 -151.454285 149.782516 # CH2 
213 1 1 0.000000 48.640301 -150.320526 149.693100 # CH2 
214 1 1 0.000000 49.009609 -149.167038 150.608795 # CH2 
215 1 1 0.000000 50.344921 -148.545517 150.216705 # CH2 
216 1 1 0.000000 51.293701 -149.555695 149.582336 # CH2 
217 1 1 0.000000 51.056358 -50.956879 -149.883179 # CH2 
218 1 1 0.000000 49.655029 -51.454281 -150.217484 # CH2 
219 1 1 0.000000 48.640301 -50.320530 -150.306900 # CH2 
220 1 1 0.000000 49.009609 -49.167042 -149.391205 # CH2 
221 1 1 0.000000 50.344921 -48.545509 -149.783295 # CH2 
222 1 1 0.000000 51.293701 -49.555698 -150.417664 # CH2 
223 1 1 0.000000 51.056358 -50.956879 -49.883179 # CH2 
224 1 1 0.000000 49.655029 -51.454281 -50.217480 # CH2 
225 1 1 0.000000 48.640301 -50.320530 -50.306900 # CH2 
226 1 1 0.000000 49.009609 -49.167042 -49.391201 # CH2 
227 1 1 0.000000 50.344921 -48.545509 -49.783298 # CH2 
228 1 1 0.000000 51.293701 -49.555698 -50.417660 # CH2 
229 1 1 0.000000 51.056358 -50.956879 50.116821 # CH2 
230 1 1 0.000000 49.655029 -51.454281 49.782520 # CH2 
231 1 1 0.000000 48.640301 -50.320530 49.693100 # CH2 
232 1 1 0.000000 49.009609 -49.167042 50.608799 # CH2 
233 1 1 0.000000 50.344921 -48.545509 50.216702 # CH2 
234 1 1 0.000000 51.293701 -49.555698 49.582340 # CH2 
235 1 1 0.000000 51.056358 -50.956879 150.116821 # CH2 
236 1 1 0.000000 49.655029 -51.454281 149.782516 # CH2 
237 1 1 0.000000 48.640301 -50.320530 149.693100 # CH2 
238 1 1 0.000000 49.009609 -49.167042 150.608795 # CH2 
239 1 1 0.000000 50.344921 -48.545509 150.216705 # CH2 
240 1 1 0.000000 51.293701 -49.555698 149.582336 # CH2 
241 1 1 0.000000 51.056358 49.043121 -149.883179 # CH2 
242 1 1 0.000000 49.655029 48.545719 -150.217484 # CH2 
243 1 1 0.000000 48.640301 49.679470 -150.306900 # CH2 
244 1 1 0.000000 49.009609 50.832958 -149.391205 # CH2 
245 1 1 0.000000 50.344921 51.454491 -149.783295 # CH2 
246 1 1 0.000000 51.293701 50.444302 -150.417664 # CH2 
247 1 1 0.000000 51.056358 49.043121 -49.883179 # CH2 
248 1 1 0.000000 49.655029 48.545719 -50.217480 # CH2 
249 1 1 0.000000 48.640301 49.679470 -50.306900 # CH2 
250 1 1 0.000000 49.009609 50.832958 -49.391201 # CH2 
251 1 1 0.000000 50.344921 51.454491 -49.783298 # CH2 
252 1 1 0.000000 51.293701 50.444302 -50.417660 # CH2 
253 1 1 0.000000 51.056358 49.043121 50.116821 # CH2 
254 1 1 0.000000 49.655029 48.545719 49.782520 # CH2 
255 1 1 0.000000 48.640301 49.679470 49.693100 # CH2 
256 1 1 0.000000 49.009609 50.832958 50.608799 # CH2 
257 1 1 0.000000 50.344921 51.454491 50.216702 # CH2 
258 1 1 0.000000 51.293701 50.444302 49.582340 # CH2 
259 1 1 0.000000 51.056358 49.043121 150.116821 # CH2 
260 1 1 0.000000 49.655029 48.545719 149.782516 # CH2 
261 1 1 0.000000 48.640301 49.679470 149.693100 # CH2 
262 1 1 0.000000 49.009609 50.832958 150.608795 # CH2 
263 1 1 0.000000 50.344921 51.454491 150.216705 # CH2 
264 1 1 0.000000 51.293701 50.444302 149.582336 # CH2 
265 1 1 0.000000 51.056358 149.043121 -149.883179 # CH2 
266 1 1 0.000000 49.655029 148.545715 -150.217484 # CH2 
267 1 1 0.000000 48.640301 149.679474 -150.306900 # CH2 
268 1 1 0.000000 49.009609 150.832962 -149.391205 # CH2 
269 1 1 0.000000 50.344921 151.454483 -149.783295 # CH2 
270 1 1 0.000000 51.293701 150.444305 -150.417664 # CH2 
271 1 1 0.000000 51.056358 149.043121 -49.883179 # CH2 
272 1 1 0.000000 49.655029 148.545715 -50.217480 # CH2 
273 1 1 0.000000 48.640301 149.679474 -50.306900 # CH2 
274 1 1 0.000000 49.009609 150.832962 -49.391201 # CH2 
275 1 1 0.000000 50.344921 151.454483 -49.783298 # CH2 
276 1 1 0.000000 51.293701 150.444305 -50.417660 # CH2 
277 1 1 0.000000 51.056358 149.043121 50.116821 # CH2 
278 1 1 0.000000 49.655029 148.545715 49.782520 # CH2 
279 1 1 0.000000 48.640301 149.679474 49.693100 # CH2 
280 1 1 0.000000 49.009609 150.832962 50.608799 # CH2 
281 1 1 0.000000 50.344921 151.454483 50.216702 # CH2 
282 1 1 0.000000 51.293701 150.444305 49.582340 # CH2 
283 1 1 0.000000 51.056358 149.043121 150.116821 # CH2 
284 1 1 0.000000 49.655029 148.545715 149.782516 # CH2 
285 1 1 0.000000 48.640301 149.679474 149.693100 # CH2 
286 1 1 0.000000 49.009609 150.832962 150.608795 # CH2 
287 1 1 0.000000 50.344921 151.454483 150.216705 # CH2 
288 1 1 0.000000 51.293701 150.444305 149.582336 # CH2 
289 1 1 0.000000 151.056366 -150.956879 -149.883179 # CH2 
290 1 1 0.000000 149.655029 -151.454285 -150.217484 # CH2 
291 1 1 0.000000 148.640305 -150.320526 -150.306900 # CH2 
292 1 1 0.000000 149.009613 -149.167038 -149.391205 # CH2 
293 1 1 0.000000 150.344925 -148.545517 -149.783295 # CH2 
294 1 1 0.000000 151.293701 -149.555695 -150.417664 # CH2 
295 1 1 0.000000 151.056366 -150.956879 -49.883179 # CH2 
296 1 1 0.000000 149.655029 -151.454285 -50.217480 # CH2 
297 1 1 0.000000 148.640305 -150.320526 -50.306900 # CH2 
298 1 1 0.000000 149.009613 -149.167038 -49.391201 # CH2 
299 1 1 0.000000 150.344925 -148.545517 -49.783298 # CH2 
300 1 1 0.000000 151.293701 -149.555695 -50.417660 # CH2 
301 1 1 0.000000 151.056366 -150.956879 50.116821 # CH2 
302 1 1 0.000000 149.655029 -151.454285 49.782520 # CH2 
303 1 1 0.000000 148.640305 -150.320526 49.693100 # CH2 
304 1 1 0.000000 149.009613 -149.167038 50.608799 # CH2 
305 1 1 0.000000 150.344925 -148.545517 50.216702 # CH2 
306 1 1 0.000000 151.293701 -149.555695 49.582340 # CH2 
307 1 1 0.000000 151.056366 -150.956879 150.116821 # CH2 
308 1 1 0.000000 149.655029 -151.454285 149.782516 # CH2 
309 1 1 0.000000 148.640305 -150.320526 149.693100 # CH2 
310 1 1 0.000000 149.009613 -149.167038 150.608795 # CH2 
311 1 1 0.000000 150.344925 -148.545517 150.216705 # CH2 
312 1 1 0.000000 151.293701 -149.555695 149.582336 # CH2 
313 1 1 0.000000 151.056366 -50.956879 -149.883179 # CH2 
314 1 1 0.000000 149.655029 -51.454281 -150.217484 # CH2 
315 1 1 0.000000 148.640305 -50.320530 -150.306900 # CH2 
316 1 1 0.000000 149.009613 -49.167042 -149.391205 # CH2 
317 1 1 0.000000 150.344925 -48.545509 -149.783295 # CH2 
318 1 1 0.000000 151.293701 -49.555698 -150.417664 # CH2 
319 1 1 0.000000 151.056366 -50.956879 -49.883179 # CH2 
320 1 1 0.000000 149.655029 -51.454281 -50.217480 # CH2 
321 1 1 0.000000 148.640305 -50.320530 -50.306900 # CH2 
322 1 1 0.000000 149.009613 -49.167042 -49.391201 # CH2 
323 1 1 0.000000 150.344925 -48.545509 -49.783298 # CH2 
324 1 1 0.000000 151.293701 -49.555698 -50.417660 # CH2 
325 1 1 0.000000 151.056366 -50.956879 50.116821 # CH2 
326 1 1 0.000000 149.655029 -51.454281 49.782520 # CH2 
327 1 1 0.000000 148.640305 -50.320530 49.693100 # CH2 
328 1 1 0.000000 149.009613 -49.167042 50.608799 # CH2 
329 1 1 0.000000 150.344925 -48.545509 50.216702 # CH2 
330 1 1 0.000000 151.293701 -49.555698 49.582340 # CH2 
331 1 1 0.000000 151.056366 -50.956879 150.116821 # CH2 
332 1 1 0.000000 149.655029 -51.454281 149.782516 # CH2 
333 1 1 0.000000 148.640305 -50.320530 149.693100 # CH2 
334 1 1 0.000000 149.009613 -49.167042 150.608795 # CH2 
335 1 1 0.000000 150.344925 -48.545509 150.216705 # CH2 
336 1 1 0.000000 151.293701 -49.555698 149.582336 # CH2 
337 1 1 0.000000 151.056366 49.043121 -149.883179 # CH2 
338 1 1 0.000000 149.655029 48.545719 -150.217484 # CH2 
339 1 1 0.000000 148.640305 49.679470 -150.306900 # CH2 
340 1 1 0.000000 149.009613 50.832958 -149.391205 # CH2 
341 1 1 0.000000 150.344925 51.454491 -149.783295 # CH2 
342 1 1 0.000000 151.293701 50.444302 -150.417664 # CH2 
343 1 1 0.000000 151.056366 49.043121 -49.883179 # CH2 
344 1 1 0.000000 149.655029 48.545719 -50.217480 # CH2 
345 1 1 0.000000 148.640305 49.679470 -50.306900 # CH2 
346 1 1 0.000000 149.009613 50.832958 -49.391201 # CH2 
347 1 1 0.000000 150.344925 51.454491 -49.783298 # CH2 
348 1 1 0.000000 151.293701 50.444302 -50.417660 # CH2 
349 1 1 0.000000 151.056366 49.043121 50.116821 # CH2 
350 1 1 0.000000 149.655029 48.545719 49.782520 # CH2 
351 1 1 0.000000 148.640305 49.679470 49.693100 # CH2 
352 1 1 0.000000 149.009613 50.832958 50.608799 # CH2 
353 1 1 0.000000 150.344925 51.454491 50.216702 # CH2 
354 1 1 0.000000 151.293701 50.444302 49.582340 # CH2 
355 1 1 0.000000 151.056366 49.043121 150.116821 # CH2 
356 1 1 0.000000 149.655029 48.545719 149.782516 # CH2 
357 1 1 0.000000 148.640305 49.679470 149.693100 # CH2 
358 1 1 0.000000 149.009613 50.832958 150.608795 # CH2 
359 1 1 0.000000 150.344925 51.454491 150.216705 # CH2 
360 1 1 0.000000 151.293701 50.444302 149.582336 # CH2 
361 1 1 0.000000 151.056366 149.043121 -149.883179 # CH2 
362 1 1 0.000000 149.655029 148.545715 -150.217484 # CH2 
363 1 1 0.000000 148.640305 149.679474 -150.306900 # CH2 
364 1 1 0.000000 149.009613 150.832962 -149.391205 # CH2 
365 1 1 0.000000 150.344925 151.454483 -149.783295 # CH2 
366 1 1 0.000000 151.293701 150.444305 -150.417664 # CH2 
367 1 1 0.000000 151.056366 149.043121 -49.883179 # CH2 
368 1 1 0.000000 149.655029 148.545715 -50.217480 # CH2 
369 1 1 0.000000 148.640305 149.679474 -50.306900 # CH2 
370 1 1 0.000000 149.009613 150.832962 -49.391201 # CH2 
371 1 1 0.000000 150.344925 151.454483 -49.783298 # CH2 
372 1 1 0.000000 151.293701 150.444305 -50.417660 # CH2 
373 1 1 0.000000 151.056366 149.043121 50.116821 # CH2 
374 1 1 0.000000 149.655029 148.545715 49.782520 # CH2 
375 1 1 0.000000 148.640305 149.679474 49.693100 # CH2 
376 1 1 0.000000 149.009613 150.832962 50.608799 # CH2 
377 1 1 0.000000 150.344925 151.454483 50.216702 # CH2 
378 1 1 0.000000 151.293701 150.444305 49.582340 # CH2 
379 1 1 0.000000 151.056366 149.043121 150.116821 # CH2 
380 1 1 0.000000 149.655029 148.545715 149.782516 # CH2 
381 1 1 0.000000 148.640305 149.679474 149.693100 # CH2 
382 1 1 0.000000 149.009613 150.832962 150.608795 # CH2 
383 1 1 0.000000 150.344925 151.454483 150.216705 # CH2 
384 1 1 0.000000 151.293701 150.444305 149.582336 # CH2 

 Bonds

1 1 1 6
2 1 1 2
3 1 2 3
4 1 3 4
5 1 4 5
6 1 5 6
7 1 7 12
8 1 7 8
9 1 8 9
10 1 9 10
11 1 10 11
12 1 11 12
13 1 13 18
14 1 13 14
15 1 14 15
16 1 15 16
17 1 16 17
18 1 17 18
19 1 19 24
20 1 19 20
21 1 20 21
22 1 21 22
23 1 22 23
24 1 23 24
25 1 25 30
26 1 25 26
27 1 26 27
28 1 27 28
29 1 28 29
30 1 29 30
31 1 31 36
32 1 31 32
33 1 32 33
34 1 33 34
35 1 34 35
36 1 35 36
37 1 37 42
38 1 37 38
39 1 38 39
40 1 39 40
41 1 40 41
42 1 41 42
43 1 43 48
44 1 43 44
45 1 44 45
46 1 45 46
47 1 46 47
48 1 47 48
49 1 49 54
50 1 49 50
51 1 50 51
52 1 51 52
53 1 52 53
54 1 53 54
55 1 55 60
56 1 55 56
57 1 56 57
58 1 57 58
59 1 58 59
60 1 59 60
61 1 61 66
62 1 61 62
63 1 62 63
64 1 63 64
65 1 64 65
66 1 65 66
67 1 67 72
68 1 67 68
69 1 68 69
70 1 69 70
71 1 70 71
72 1 71 72
73 1 73 78
74 1 73 74
75 1 74 75
76 1 75 76
77 1 76 77
78 1 77 78
79 1 79 84
80 1 79 80
81 1 80 81
82 1 81 82
83 1 82 83
84 1 83 84
85 1 85 90
86 1 85 86
87 1 86 87
88 1 87 88
89 1 88 89
90 1 89 90
91 1 91 96
92 1 91 92
93 1 92 93
94 1 93 94
95 1 94 95
96 1 95 96
97 1 97 102
98 1 97 98
99 1 98 99
100 1 99 100
101 1 100 101
102 1 101 102
103 1 103 108
104 1 103 104
105 1 104 105
106 1 105 106
107 1 106 107
108 1 107 108
109 1 109 114
110 1 109 110
111 1 110 111
112 1 111 112
113 1 112 113
114 1 113 114
115 1 115 120
116 1 115 116
117 1 116 117
118 1 117 118
119 1 118 119
120 1 119 120
121 1 121 126
122 1 121 122
123 1 122 123
124 1 123 124
125 1 124 125
126 1 125 126
127 1 127 132
128 1 127 128
129 1 128 129
130 1 129 130
131 1 130 131
132 1 131 132
133 1 133 138
134 1 133 134
135 1 134 135
136 1 135 136
137 1 136 137
138 1 137 138
139 1 139 144
140 1 139 140
141 1 140 141
142 1 141 142
143 1 142 143
144 1 143 144
145 1 145 150
146 1 145 146
147 1 146 147
148 1 147 148
149 1 148 149
150 1 149 150
151 1 151 156
152 1 151 152
153 1 152 153
154 1 153 154
155 1 154 155
156 1 155 156
157 1 157 162
158 1 157 158
159 1 158 159
160 1 159 160
161 1 160 161
162 1 161 162
163 1 163 168
164 1 163 164
165 1 164 165
166 1 165 166
167 1 166 167
168 1 167 168
169 1 169 174
170 1 169 170
171 1 170 171
172 1 171 172
173 1 172 173
174 1 173 174
175 1 175 180
176 1 175 176
177 1 176 177
178 1 177 178
179 1 178 179
180 1 179 180
181 1 181 186
182 1 181 182
183 1 182 183
184 1 183 184
185 1 184 185
186 1 185 186
187 1 187 192
188 1 187 188
189 1 188 189
190 1 189 190
191 1 190 191
192 1 191 192
193 1 193 198
194 1 193 194
195 1 194 195
196 1 195 196
197 1 196 197
198 1 197 198
199 1 199 204
200 1 199 200
201 1 200 201
202 1 201 202
203 1 202 203
204 1 203 204
205 1 205 210
206 1 205 206
207 1 206 207
208 1 207 208
209 1 208 209
210 1 209 210
211 1 211 216
212 1 211 212
213 1 212 213
214 1 213 214
215 1 214 215
216 1 215 216
217 1 217 222
218 1 217 218
219 1 218 219
220 1 219 220
221 1 220 221
222 1 221 222
223 1 223 228
224 1 223 224
225 1 224 225
226 1 225 226
227 1 226 227
228 1 227 228
229 1 229 234
230 1 229 230
231 1 230 231
232 1 231 232
233 1 232 233
234 1 233 234
235 1 235 240
236 1 235 236
237 1 236 237
238 1 237 238
239 1 238 239
240 1 239 240
241 1 241 246
242 1 241 242
243 1 242 243
244 1 243 244
245 1 244 245
246 1 245 246
247 1 247 252
248 1 247 248
249 1 248 249
250 1 249 250
251 1 250 251
252 1 251 252
253 1 253 258
254 1 253 254
255 1 254 255
256 1 255 256
257 1 256 257
258 1 257 258
259 1 259 264
260 1 259 260
261 1 260 261
262 1 261 262
263 1 262 263
264 1 263 264
265 1 265 270
266 1 265 266
267 1 266 267
268 1 267 268
269 1 268 269
270 1 269 270
271 1 271 276
272 1 271 272
273 1 272 273
274 1 273 274
275 1 274 275
276 1 275 276
277 1 277 282
278 1 277 278
279 1 278 279
280 1 279 280
281 1 280 281
282 1 281 282
283 1 283 288
284 1 283 284
285 1 284 285
286 1 285 286
287 1 286 287
288 1 287 288
289 1 289 294
290 1 289 290
291 1 290 291
292 1 291 292
293 1 292 293
294 1 293 294
295 1 295 300
296 1 295 296
297 1 296 297
298 1 297 298
299 1 298 299
300 1 299 300
301 1 301 306
302 1 301 302
303 1 302 303
304 1 303 304
305 1 304 305
306 1 305 306
307 1 307 312
308 1 307 308
309 1 308 309
310 1 309 310
311 1 310 311
312 1 311 312
313 1 313 318
314 1 313 314
315 1 314 315
316 1 315 316
317 1 316 317
318 1 317 318
319 1 319 324
320 1 319 320
321 1 320 321
322 1 321 322
323 1 322 323
324 1 323 324
325 1 325 330
326 1 325 326
327 1 326 327
328 1 327 328
329 1 328 329
330 1 329 330
331 1 331 336
332 1 331 332
333 1 332 333
334 1 333 334
335 1 334 335
336 1 335 336
337 1 337 342
338 1 337 338
339 1 338 339
340 1 339 340
341 1 340 341
342 1 341 342
343 1 343 348
344 1 343 344
345 1 344 345
346 1 345 346
347 1 346 347
348 1 347 348
349 1 349 354
350 1 349 350
351 1 350 351
352 1 351 352
353 1 352 353
354 1 353 354
355 1 355 360
356 1 355 356
357 1 356 357
358 1 357 358
359 1 358 359
360 1 359 360
361 1 361 366
362 1 361 362
363 1 362 363
364 1 363 364
365 1 364 365
366 1 365 366
367 1 367 372
368 1 367 368
369 1 368 369
370 1 369 370
371 1 370 371
372 1 371 372
373 1 373 378
374 1 373 374
375 1 374 375
376 1 375 376
377 1 376 377
378 1 377 378
379 1 379 384
380 1 379 380
381 1 380 381
382 1 381 382
383 1 382 383
384 1 383 384

 Angles

1 1 2 1 6
2 1 1 2 3
3 1 2 3 4
4 1 3 4 5
5 1 4 5 6
6 1 1 6 5
7 1 8 7 12
8 1 7 8 9
9 1 8 9 10
10 1 9 10 11
11 1 10 11 12
12 1 7 12 11
13 1 14 13 18
14 1 13 14 15
15 1 14 15 16
16 1 15 16 17
17 1 16 17 18
18 1 13 18 17
19 1 20 19 24
20 1 19 20 21
21 1 20 21 22
22 1 21 22 23
23 1 22 23 24
24 1 19 24 23
25 1 26 25 30
26 1 25 26 27
27 1 26 27 28
28 1 27 28 29
29 1 28 29 30
30 1 25 30 29
31 1 32 31 36
32 1 31 32 33
33 1 32 33 34
34 1 33 34 35
35 1 34 35 36
36 1 31 36 35
37 1 38 37 42
38 1 37 38 39
39 1 38 39 40
40 1 39 40 41
41 1 40 41 42
42 1 37 42 41
43 1 44 43 48
44 1 43 44 45
45 1 44 45 46
46 1 45 46 47
47 1 46 47 48
48 1 43 48 47
49 1 50 49 54
50 1 49 50 51
51 1 50 51 52
52 1 51 52 53
53 1 52 53 54
54 1 49 54 53
55 1 56 55 60
56 1 55 56 57
57 1 56 57 58
58 1 57 58 59
59 1 58 59 60
60 1 55 60 59
61 1 62 61 66
62 1 61 62 63
63 1 62 63 64
64 1 63 64 65
65 1 64 65 66
66 1 61 66 65
67 1 68 67 72
68 1 67 68 69
69 1 68 69 70
70 1 69 70 71
71 1 70 71 72
72 1 67 72 71
73 1 74 73 78
74 1 73 74 75
75 1 74 75 76
76 1 75 76 77
77 1 76 77 78
78 1 73 78 77
79 1 80 79 84
80 1 79 80 81
81 1 80 81 82
82 1 81 82 83
83 1 82 83 84
84 1 79 84 83
85 1 86 85 90
86 1 85 86 87
87 1 86 87 88
88 1 87 88 89
89 1 88 89 90
90 1 85 90 89
91 1 92 91 96
92 1 91 92 93
93 1 92 93 94
94 1 93 94 95
95 1 94 95 96
96 1 91 96 95
97 1 98 97 102
98 1 97 98 99
99 1 98 99 100
100 1 99 100 101
101 1 100 101 102
102 1 97 102 101
103 1 104 103 108
104 1 103 104 105
105 1 104 105 106
106 1 105 106 107
107 1 106 107 108
108 1 103 108 107
109 1 110 109 114
110 1 109 110 111
111 1 110 111 112
112 1 111 112 113
113 1 112 113 114
114 1 109 114 113
115 1 116 115 120
116 1 115 116 117
117 1 116 117 118
118 1 117 118 119
119 1 118 119 120
120 1 115 120 119
121 1 122 121 126
122 1 121 122 123
123 1 122 123 124
124 1 123 124 125
125 1 124 125 126
126 1 121 126 125
127 1 128 127 132
128 1 127 128 129
129 1 128 129 130
130 1 129 130 131
131 1 130 131 132
132 1 127 132 131
133 1 134 133 138
134 1 133 134 135
135 1 134 135 136
136 1 135 136 137
137 1 136 137 138
138 1 133 138 137
139 1 140 139 144
140 1 139 140 141
141 1 140 141 142
142 1 141 142 143
143 1 142 143 144
144 1 139 144 143
145 1 146 145 150
146 1 145 146 147
147 1 146 147 148
148 1 147 148 149
149 1 148 149 150
150 1 145 150 149
151 1 152 151 156
152 1 151 152 153
153 1 152 153 154
154 1 153 154 155
155 1 154 155 156
156 1 151 156 155
157 1 158 157 162
158 1 157 158 159
159 1 158 159 160
160 1 159 160 161
161 1 160 161 162
162 1 157 162 161
163 1 164 163 168
164 1 163 164 165
165 1 164 165 166
166 1 165 166 167
167 1 166 167 168
168 1 163 168 167
169 1 170 169 174