LAMMPS data file
# 200 wat molecules

2 atom types
1 bond types
1 angle types

600 atoms
400 bonds
200 angles

-12.362 12.362 xlo xhi
-12.358 12.358 ylo yhi
-12.361 12.361 zlo zhi

Masses

1   16.000  # oh wat
2    1.008  # ho wat

Pair Coeffs

1 0.15524976551 3.166  # oh wat
2 0.0 0.000  # ho wat

Bond Coeffs

1 369.352928448  1.000  # harmonic wat ho oh

Angle Coeffs

1 41.90196672  109.47  # harmonic wat ho oh ho

Atoms

1 1 1 -0.847600   -3.79700   -5.64100   -7.72000  # oh O1 wat 1
2 1 2  0.423800   -4.10100   -6.48500   -7.27800  # ho H1 wat 1
3 1 2  0.423800   -4.03500   -4.85900   -7.14500  # ho H2 wat 1
4 2 1 -0.847600   -7.98300    4.15000   -6.60300  # oh O1 wat 2
5 2 2  0.423800   -7.97400    3.73700   -5.69300  # ho H1 wat 2
6 2 2  0.423800   -8.86900    4.58600   -6.76200  # ho H2 wat 2
7 3 1 -0.847600    6.19900   -0.95200   -8.79300  # oh O1 wat 3
8 3 2  0.423800    5.64900   -1.77000   -8.96400  # ho H1 wat 3
9 3 2  0.423800    7.13400   -1.22300   -8.56000  # ho H2 wat 3
10 4 1 -0.847600    1.13200   -2.64700   -8.04400  # oh O1 wat 4
11 4 2  0.423800    0.73200   -3.32500   -7.42700  # ho H1 wat 4
12 4 2  0.423800    1.06200   -2.97400   -8.98700  # ho H2 wat 4
13 5 1 -0.847600    0.05400   -8.25200    6.77600  # oh O1 wat 5
14 5 2  0.423800    0.27900   -9.19700    6.53800  # ho H1 wat 5
15 5 2  0.423800    0.88900   -7.76600    7.03400  # ho H2 wat 5
16 6 1 -0.847600   -6.56700    5.83600   -3.03000  # oh O1 wat 6
17 6 2  0.423800   -5.76400    5.98700   -3.60600  # ho H1 wat 6
18 6 2  0.423800   -6.81200    4.86600   -3.04800  # ho H2 wat 6
19 7 1 -0.847600    4.68000    0.66600   -9.99700  # oh O1 wat 7
20 7 2  0.423800    4.93600    0.23300  -10.86100  # ho H1 wat 7
21 7 2  0.423800    5.36000    1.36000   -9.75800  # ho H2 wat 7
22 8 1 -0.847600   -4.91400    8.05700   -1.10700  # oh O1 wat 8
23 8 2  0.423800   -4.17300    7.59900   -1.59800  # ho H1 wat 8
24 8 2  0.423800   -4.57500    8.91300   -0.71600  # ho H2 wat 8
25 9 1 -0.847600   -4.66100   -8.12200   -8.69600  # oh O1 wat 9
26 9 2  0.423800   -5.59800   -8.38200   -8.46600  # ho H1 wat 9
27 9 2  0.423800   -4.08200   -8.93700   -8.70400  # ho H2 wat 9
28 10 1 -0.847600    9.16700    3.40500   -6.07800  # oh O1 wat 10
29 10 2  0.423800    9.79300    2.62500   -6.08400  # ho H1 wat 10
30 10 2  0.423800    8.23700    3.08400   -5.89700  # ho H2 wat 10
31 11 1 -0.847600    5.16400    3.26600   -4.80700  # oh O1 wat 11
32 11 2  0.423800    6.13300    3.34400   -5.03900  # ho H1 wat 11
33 11 2  0.423800    4.61700    3.29500   -5.64400  # ho H2 wat 11
34 12 1 -0.847600   -3.21300    5.09200   -5.68700  # oh O1 wat 12
35 12 2  0.423800   -3.51500    5.60600   -4.88400  # ho H1 wat 12
36 12 2  0.423800   -3.72600    5.39600   -6.49000  # ho H2 wat 12
37 13 1 -0.847600   -3.82700   -9.11100   -1.47400  # oh O1 wat 13
38 13 2  0.423800   -4.61800   -8.96400   -0.88000  # ho H1 wat 13
39 13 2  0.423800   -3.75700  -10.08300   -1.69900  # ho H2 wat 13
40 14 1 -0.847600  -10.14000   -4.58600    3.20800  # oh O1 wat 14
41 14 2  0.423800  -10.14800   -5.56400    3.41900  # ho H1 wat 14
42 14 2  0.423800  -10.86000   -4.12700    3.72900  # ho H2 wat 14
43 15 1 -0.847600   -9.86100   -5.00900    5.75900  # oh O1 wat 15
44 15 2  0.423800   -9.19100   -5.74700    5.66900  # ho H1 wat 15
45 15 2  0.423800   -9.39200   -4.12700    5.71300  # ho H2 wat 15
46 16 1 -0.847600   -7.71900    6.14400    9.42500  # oh O1 wat 16
47 16 2  0.423800   -8.16000    6.85000    9.98000  # ho H1 wat 16
48 16 2  0.423800   -8.12000    5.25300    9.64100  # ho H2 wat 16
49 17 1 -0.847600   10.47600    2.59500  -10.35500  # oh O1 wat 17
50 17 2  0.423800   10.86200    2.26200   -9.49500  # ho H1 wat 17
51 17 2  0.423800    9.59000    2.16000  -10.51300  # ho H2 wat 17
52 18 1 -0.847600   -1.65700    4.55500    7.08900  # oh O1 wat 18
53 18 2  0.423800   -1.85000    4.95700    6.19400  # ho H1 wat 18
54 18 2  0.423800   -1.63100    5.27800    7.78000  # ho H2 wat 18
55 19 1 -0.847600  -10.58400   -8.39800    4.24200  # oh O1 wat 19
56 19 2  0.423800   -9.64100   -8.49500    4.56100  # ho H1 wat 19
57 19 2  0.423800  -10.66200   -8.76800    3.31700  # ho H2 wat 19
58 20 1 -0.847600   -3.41200    6.76700    4.68000  # oh O1 wat 20
59 20 2  0.423800   -3.81800    7.51000    4.14700  # ho H1 wat 20
60 20 2  0.423800   -2.42700    6.91600    4.76100  # ho H2 wat 20
61 21 1 -0.847600   -0.20700   -0.55900    4.84900  # oh O1 wat 21
62 21 2  0.423800   -1.02700   -0.97300    4.45400  # ho H1 wat 21
63 21 2  0.423800    0.60100   -1.06500    4.54700  # ho H2 wat 21
64 22 1 -0.847600   -7.46900    9.85500   -5.84000  # oh O1 wat 22
65 22 2  0.423800   -6.80800   10.38200   -6.37500  # ho H1 wat 22
66 22 2  0.423800   -7.64100    8.98000   -6.29200  # ho H2 wat 22
67 23 1 -0.847600   -1.43900    2.04900    5.52600  # oh O1 wat 23
68 23 2  0.423800   -1.32000    3.01600    5.30200  # ho H1 wat 23
69 23 2  0.423800   -0.69200    1.75000    6.12000  # ho H2 wat 23
70 24 1 -0.847600   -8.11900   -4.42800    0.35300  # oh O1 wat 24
71 24 2  0.423800   -7.26500   -4.18600   -0.10800  # ho H1 wat 24
72 24 2  0.423800   -8.08600   -5.38700    0.63400  # ho H2 wat 24
73 25 1 -0.847600    7.14300    3.96000    7.99700  # oh O1 wat 25
74 25 2  0.423800    7.51100    4.43400    7.19700  # ho H1 wat 25
75 25 2  0.423800    6.14700    4.04500    8.00600  # ho H2 wat 25
76 26 1 -0.847600    3.10600   -0.06900   -8.14800  # oh O1 wat 26
77 26 2  0.423800    2.23900   -0.50300   -7.90500  # ho H1 wat 26
78 26 2  0.423800    3.78500   -0.77300   -8.35500  # ho H2 wat 26
79 27 1 -0.847600    7.35000   -6.09800   -7.70600  # oh O1 wat 27
80 27 2  0.423800    6.53200   -5.52400   -7.75100  # ho H1 wat 27
81 27 2  0.423800    7.08000   -7.06000   -7.67400  # ho H2 wat 27
82 28 1 -0.847600   10.51900   -8.20800    9.74100  # oh O1 wat 28
83 28 2  0.423800   10.16900   -7.28800    9.56100  # ho H1 wat 28
84 28 2  0.423800    9.75200   -8.83900    9.85900  # ho H2 wat 28
85 29 1 -0.847600   -0.66000    4.67300    2.30900  # oh O1 wat 29
86 29 2  0.423800   -0.38000    4.99200    1.40400  # ho H1 wat 29
87 29 2  0.423800    0.10500    4.76700    2.94600  # ho H2 wat 29
88 30 1 -0.847600    4.23500    4.74000   -8.15900  # oh O1 wat 30
89 30 2  0.423800    4.22200    4.85100   -7.16500  # ho H1 wat 30
90 30 2  0.423800    4.70500    5.51900   -8.57500  # ho H2 wat 30
91 31 1 -0.847600    3.73600    2.32600    6.33300  # oh O1 wat 31
92 31 2  0.423800    3.23200    2.84100    5.63900  # ho H1 wat 31
93 31 2  0.423800    4.22300    2.96300    6.93100  # ho H2 wat 31
94 32 1 -0.847600    9.44400   -1.86600   -8.60700  # oh O1 wat 32
95 32 2  0.423800    9.96400   -2.71600   -8.51800  # ho H1 wat 32
96 32 2  0.423800   10.05800   -1.08600   -8.48600  # ho H2 wat 32
97 33 1 -0.847600   -1.88800    9.77200    3.16500  # oh O1 wat 33
98 33 2  0.423800   -2.72100   10.32600    3.16500  # ho H1 wat 33
99 33 2  0.423800   -2.13200    8.80300    3.12300  # ho H2 wat 33
100 34 1 -0.847600    4.37800    6.83000    1.46500  # oh O1 wat 34
101 34 2  0.423800    4.24100    5.94900    1.01200  # ho H1 wat 34
102 34 2  0.423800    3.80600    6.87700    2.28300  # ho H2 wat 34
103 35 1 -0.847600    4.88800    8.51100   -1.23000  # oh O1 wat 35
104 35 2  0.423800    5.63500    9.17500   -1.25500  # ho H1 wat 35
105 35 2  0.423800    5.16300    7.68300   -1.71900  # ho H2 wat 35
106 36 1 -0.847600   -8.04500   -1.11400    4.71800  # oh O1 wat 36
107 36 2  0.423800   -8.51900   -1.85900    4.24700  # ho H1 wat 36
108 36 2  0.423800   -7.14100   -0.98500    4.31200  # ho H2 wat 36
109 37 1 -0.847600    1.85900   -4.09200   -1.65700  # oh O1 wat 37
110 37 2  0.423800    2.20300   -3.35800   -2.24300  # ho H1 wat 37
111 37 2  0.423800    1.06700   -3.76300   -1.14200  # ho H2 wat 37
112 38 1 -0.847600   -0.70300    1.42800    3.15100  # oh O1 wat 38
113 38 2  0.423800   -0.48500    1.64700    2.19900  # ho H1 wat 38
114 38 2  0.423800   -1.69600    1.42100    3.27100  # ho H2 wat 38
115 39 1 -0.847600    6.41000    9.26800    8.03800  # oh O1 wat 39
116 39 2  0.423800    7.21800    8.67800    8.03200  # ho H1 wat 39
117 39 2  0.423800    6.69700   10.22600    8.06000  # ho H2 wat 39
118 40 1 -0.847600    1.69900    9.45300   -3.63300  # oh O1 wat 40
119 40 2  0.423800    2.45500    8.86900   -3.33800  # ho H1 wat 40
120 40 2  0.423800    2.06000   10.22700   -4.15300  # ho H2 wat 40
121 41 1 -0.847600    9.49500    8.18400   -4.45200  # oh O1 wat 41
122 41 2  0.423800    8.76400    7.96300   -5.09800  # ho H1 wat 41
123 41 2  0.423800   10.38100    8.07100   -4.90000  # ho H2 wat 41
124 42 1 -0.847600   -3.40100   -4.83300    3.71000  # oh O1 wat 42
125 42 2  0.423800   -3.38300   -3.83300    3.74600  # ho H1 wat 42
126 42 2  0.423800   -4.35000   -5.14800    3.70400  # ho H2 wat 42
127 43 1 -0.847600  -10.00000   -8.37800   -2.30800  # oh O1 wat 43
128 43 2  0.423800  -10.38500   -7.51600   -1.97700  # ho H1 wat 43
129 43 2  0.423800   -9.00300   -8.30600   -2.34200  # ho H2 wat 43
130 44 1 -0.847600  -10.86200   -9.16000    9.18900  # oh O1 wat 44
131 44 2  0.423800  -10.12800   -9.08500    9.86400  # ho H1 wat 44
132 44 2  0.423800  -10.52000   -8.87800    8.29300  # ho H2 wat 44
133 45 1 -0.847600    2.11700   -8.29500    4.20000  # oh O1 wat 45
134 45 2  0.423800    1.20800   -7.92900    4.40200  # ho H1 wat 45
135 45 2  0.423800    2.13200   -9.27600    4.39200  # ho H2 wat 45
136 46 1 -0.847600    7.96500   -7.45400    2.74900  # oh O1 wat 46
137 46 2  0.423800    8.10500   -8.44400    2.74500  # ho H1 wat 46
138 46 2  0.423800    8.85100   -6.99300    2.80200  # ho H2 wat 46
139 47 1 -0.847600    6.83700   -5.58600    3.03000  # oh O1 wat 47
140 47 2  0.423800    7.37100   -4.74100    3.05900  # ho H1 wat 47
141 47 2  0.423800    5.86500   -5.36400    2.95900  # ho H2 wat 47
142 48 1 -0.847600    2.77700    3.28600   -4.22700  # oh O1 wat 48
143 48 2  0.423800    1.78600    3.15700   -4.20400  # ho H1 wat 48
144 48 2  0.423800    2.98500    4.26400   -4.23800  # ho H2 wat 48
145 49 1 -0.847600   -2.53500   -2.92900   -5.57900  # oh O1 wat 49
146 49 2  0.423800   -2.42800   -2.62100   -6.52400  # ho H1 wat 49
147 49 2  0.423800   -2.81800   -2.15900   -5.00700  # ho H2 wat 49
148 50 1 -0.847600   -0.17000    0.88900   -3.50700  # oh O1 wat 50
149 50 2  0.423800   -0.73100    0.07500   -3.66100  # ho H1 wat 50
150 50 2  0.423800    0.55900    0.67300   -2.85800  # ho H2 wat 50
151 51 1 -0.847600    8.03800   -9.83800    5.37400  # oh O1 wat 51
152 51 2  0.423800    8.59600   -9.71000    4.55500  # ho H1 wat 51
153 51 2  0.423800    7.39500   -9.07600    5.46100  # ho H2 wat 51
154 52 1 -0.847600    2.13300    9.58300   -9.31900  # oh O1 wat 52
155 52 2  0.423800    2.60500    9.14100  -10.08200  # ho H1 wat 52
156 52 2  0.423800    1.93700   10.53500   -9.55500  # ho H2 wat 52
157 53 1 -0.847600   -8.42700    3.54200    1.05700  # oh O1 wat 53
158 53 2  0.423800   -8.89300    3.19900    1.87300  # ho H1 wat 53
159 53 2  0.423800   -9.08600    3.63200    0.31000  # ho H2 wat 53
160 54 1 -0.847600    8.68300    4.90800   -3.47100  # oh O1 wat 54
161 54 2  0.423800    8.28000    4.71800   -4.36600  # ho H1 wat 54
162 54 2  0.423800    9.58900    4.48800   -3.41700  # ho H2 wat 54
163 55 1 -0.847600    3.25900   -4.68400   -9.94100  # oh O1 wat 55
164 55 2  0.423800    3.24700   -5.50700  -10.50900  # ho H1 wat 55
165 55 2  0.423800    3.40700   -3.88200  -10.52000  # ho H2 wat 55
166 56 1 -0.847600   -0.84900    2.68100   -9.10100  # oh O1 wat 56
167 56 2  0.423800   -0.50100    1.74600   -9.18200  # ho H1 wat 56
168 56 2  0.423800   -0.37200    3.27100   -9.75300  # ho H2 wat 56
169 57 1 -0.847600   10.52900   -7.18100    5.05100  # oh O1 wat 57
170 57 2  0.423800    9.61300   -6.94400    5.37200  # ho H1 wat 57
171 57 2  0.423800   10.46300   -7.89400    4.35200  # ho H2 wat 57
172 58 1 -0.847600   -2.16600   -4.96000  -10.85900  # oh O1 wat 58
173 58 2  0.423800   -2.60200   -5.06200   -9.96500  # ho H1 wat 58
174 58 2  0.423800   -1.44500   -4.26900  -10.80100  # ho H2 wat 58
175 59 1 -0.847600   -7.97400  -10.47500    8.50500  # oh O1 wat 59
176 59 2  0.423800   -7.61300  -10.74100    9.39800  # ho H1 wat 59
177 59 2  0.423800   -8.97200  -10.42000    8.55200  # ho H2 wat 59
178 60 1 -0.847600   -2.95900    4.11800   -8.51100  # oh O1 wat 60
179 60 2  0.423800   -2.57000    3.39900   -7.93500  # ho H1 wat 60
180 60 2  0.423800   -2.42500    4.19400   -9.35400  # ho H2 wat 60
181 61 1 -0.847600    2.51000   -4.75800    4.10000  # oh O1 wat 61
182 61 2  0.423800    3.31500   -4.51300    4.64000  # ho H1 wat 61
183 61 2  0.423800    2.52400   -5.73900    3.90800  # ho H2 wat 61
184 62 1 -0.847600    1.97300   -1.84600    8.80700  # oh O1 wat 62
185 62 2  0.423800    1.76400   -2.62100    9.40300  # ho H1 wat 62
186 62 2  0.423800    1.18600   -1.65400    8.22100  # ho H2 wat 62
187 63 1 -0.847600   -8.32100    0.63400    0.85500  # oh O1 wat 63
188 63 2  0.423800   -7.88900    0.20100    1.64600  # ho H1 wat 63
189 63 2  0.423800   -7.73000    1.36400    0.51100  # ho H2 wat 63
190 64 1 -0.847600    2.98900    8.62800    0.51100  # oh O1 wat 64
191 64 2  0.423800    3.35300    9.54900    0.37200  # ho H1 wat 64
192 64 2  0.423800    2.24700    8.66000    1.18200  # ho H2 wat 64
193 65 1 -0.847600    0.02800   10.16600    9.42400  # oh O1 wat 65
194 65 2  0.423800    0.91000    9.81600    9.10700  # ho H1 wat 65
195 65 2  0.423800   -0.68700    9.49500    9.22600  # ho H2 wat 65
196 66 1 -0.847600    4.74100    9.98700   10.56500  # oh O1 wat 66
197 66 2  0.423800    4.09800   10.69000   10.26100  # ho H1 wat 66
198 66 2  0.423800    5.66800   10.24000   10.28700  # ho H2 wat 66
199 67 1 -0.847600    7.33600   -3.02200   -0.13600  # oh O1 wat 67
200 67 2  0.423800    7.38900   -3.95000   -0.50400  # ho H1 wat 67
201 67 2  0.423800    6.38300   -2.72200   -0.12600  # ho H2 wat 67
202 68 1 -0.847600   10.61900   -5.37400   -0.16200  # oh O1 wat 68
203 68 2  0.423800   10.04400   -5.94100   -0.75200  # ho H1 wat 68
204 68 2  0.423800   10.28900   -4.43100   -0.18100  # ho H2 wat 68
205 69 1 -0.847600   -3.36100  -10.83500   10.38900  # oh O1 wat 69
206 69 2  0.423800   -2.36700  -10.72700   10.41400  # ho H1 wat 69
207 69 2  0.423800   -3.75600  -10.14400    9.78400  # ho H2 wat 69
208 70 1 -0.847600   -7.91700   -7.34700   10.02000  # oh O1 wat 70
209 70 2  0.423800   -8.91300   -7.25600    9.98800  # ho H1 wat 70
210 70 2  0.423800   -7.50000   -6.43800   10.01700  # ho H2 wat 70
211 71 1 -0.847600    1.92400   -1.40900   -3.31800  # oh O1 wat 71
212 71 2  0.423800    1.29900   -1.37400   -2.53900  # ho H1 wat 71
213 71 2  0.423800    1.40600   -1.29600   -4.16600  # ho H2 wat 71
214 72 1 -0.847600   -9.09200    0.74200   -5.50500  # oh O1 wat 72
215 72 2  0.423800   -9.65700    1.37300   -6.03500  # ho H1 wat 72
216 72 2  0.423800   -8.12700    0.97400   -5.62900  # ho H2 wat 72
217 73 1 -0.847600   -6.59800    1.73900    7.20300  # oh O1 wat 73
218 73 2  0.423800   -6.74200    0.97100    7.82700  # ho H1 wat 73
219 73 2  0.423800   -6.08100    1.42800    6.40500  # ho H2 wat 73
220 74 1 -0.847600   -2.30000  -10.33500    2.62500  # oh O1 wat 74
221 74 2  0.423800   -3.21400  -10.45000    3.01400  # ho H1 wat 74
222 74 2  0.423800   -1.64000  -10.85800    3.16500  # ho H2 wat 74
223 75 1 -0.847600   -4.78700    2.85200    0.52600  # oh O1 wat 75
224 75 2  0.423800   -5.27300    1.97800    0.48700  # ho H1 wat 75
225 75 2  0.423800   -5.11800    3.38300    1.30600  # ho H2 wat 75
226 76 1 -0.847600    2.05500    9.13300   10.85700  # oh O1 wat 76
227 76 2  0.423800    1.25500    8.53300   10.86100  # ho H1 wat 76
228 76 2  0.423800    2.83600    8.64300   10.46900  # ho H2 wat 76
229 77 1 -0.847600   -2.59800   -5.73500    8.80600  # oh O1 wat 77
230 77 2  0.423800   -2.96200   -4.81400    8.66900  # ho H1 wat 77
231 77 2  0.423800   -1.75600   -5.68300    9.34400  # ho H2 wat 77
232 78 1 -0.847600   -4.28700    8.36000    8.55000  # oh O1 wat 78
233 78 2  0.423800   -4.87800    7.55500    8.59900  # ho H1 wat 78
234 78 2  0.423800   -4.62500    8.97900    7.84000  # ho H2 wat 78
235 79 1 -0.847600    2.77400    1.65000    1.67100  # oh O1 wat 79
236 79 2  0.423800    1.80300    1.73800    1.44900  # ho H1 wat 79
237 79 2  0.423800    3.08900    2.48500    2.12200  # ho H2 wat 79
238 80 1 -0.847600    3.20500    1.40400   -2.64500  # oh O1 wat 80
239 80 2  0.423800    2.34900    1.89700   -2.49100  # ho H1 wat 80
240 80 2  0.423800    3.04300    0.64600   -3.27800  # ho H2 wat 80
241 81 1 -0.847600    0.91800    3.12400    7.10200  # oh O1 wat 81
242 81 2  0.423800    1.03200    3.52200    6.19200  # ho H1 wat 81
243 81 2  0.423800    1.55500    3.55900    7.73800  # ho H2 wat 81
244 82 1 -0.847600   -6.31600   10.54700    8.97900  # oh O1 wat 82
245 82 2  0.423800   -5.71500   10.85700    9.71600  # ho H1 wat 82
246 82 2  0.423800   -7.25400   10.83700    9.17100  # ho H2 wat 82
247 83 1 -0.847600   -7.11300   -3.81200   10.60200  # oh O1 wat 83
248 83 2  0.423800   -7.20500   -4.27800    9.72200  # ho H1 wat 83
249 83 2  0.423800   -6.14800   -3.77700   10.86100  # ho H2 wat 83
250 84 1 -0.847600    3.64100   -1.63600    5.99100  # oh O1 wat 84
251 84 2  0.423800    4.47600   -1.10200    5.85600  # ho H1 wat 84
252 84 2  0.423800    2.85000   -1.02400    5.99500  # ho H2 wat 84
253 85 1 -0.847600    5.78300    1.98700    5.57300  # oh O1 wat 85
254 85 2  0.423800    5.99600    2.96400    5.56600  # ho H1 wat 85
255 85 2  0.423800    6.63400    1.46100    5.58300  # ho H2 wat 85
256 86 1 -0.847600  -10.08700   -6.19100    7.84600  # oh O1 wat 86
257 86 2  0.423800  -10.64300   -5.36900    7.96000  # ho H1 wat 86
258 86 2  0.423800  -10.58900   -6.86100    7.29900  # ho H2 wat 86
259 87 1 -0.847600    9.43100   -1.84600    0.26600  # oh O1 wat 87
260 87 2  0.423800   10.36400   -1.88600   -0.09100  # ho H1 wat 87
261 87 2  0.423800    9.42100   -1.31300    1.11200  # ho H2 wat 87
262 88 1 -0.847600    7.19600    2.05700    3.37500  # oh O1 wat 88
263 88 2  0.423800    6.21000    1.91600    3.28900  # ho H1 wat 88
264 88 2  0.423800    7.66300    1.17400    3.33900  # ho H2 wat 88
265 89 1 -0.847600   10.09400    4.77800   -9.90800  # oh O1 wat 89
266 89 2  0.423800   10.40600    4.78300  -10.85800  # ho H1 wat 89
267 89 2  0.423800   10.85500    5.02100   -9.30600  # ho H2 wat 89
268 90 1 -0.847600   10.04100    7.79000   -9.44300  # oh O1 wat 90
269 90 2  0.423800   10.85800    7.21400   -9.47300  # ho H1 wat 90
270 90 2  0.423800    9.22700    7.21000   -9.39100  # ho H2 wat 90
271 91 1 -0.847600    2.33800   -5.08400   -4.06800  # oh O1 wat 91
272 91 2  0.423800    2.52500   -5.72600   -4.81200  # ho H1 wat 91
273 91 2  0.423800    2.04300   -5.59000   -3.25700  # ho H2 wat 91
274 92 1 -0.847600    6.89100    5.66700    9.79400  # oh O1 wat 92
275 92 2  0.423800    6.60900    5.65900   10.75400  # ho H1 wat 92
276 92 2  0.423800    6.68900    6.56200    9.39500  # ho H2 wat 92
277 93 1 -0.847600   -3.93200   -5.57900   10.85200  # oh O1 wat 93
278 93 2  0.423800   -3.16700   -4.93500   10.85600  # ho H1 wat 93
279 93 2  0.423800   -3.57900   -6.51500   10.86100  # ho H2 wat 93
280 94 1 -0.847600   -1.02300   -2.76400   -3.68600  # oh O1 wat 94
281 94 2  0.423800   -1.66300   -3.01000   -2.95800  # ho H1 wat 94
282 94 2  0.423800   -0.10200   -3.06500   -3.43600  # ho H2 wat 94
283 95 1 -0.847600   -5.97000    5.94800   -0.40700  # oh O1 wat 95
284 95 2  0.423800   -6.62000    5.23500   -0.14500  # ho H1 wat 95
285 95 2  0.423800   -5.04400    5.65900   -0.16800  # ho H2 wat 95
286 96 1 -0.847600   -3.03800   -7.78700    8.14700  # oh O1 wat 96
287 96 2  0.423800   -3.55500   -8.64200    8.18900  # ho H1 wat 96
288 96 2  0.423800   -2.27800   -7.88800    7.50500  # ho H2 wat 96
289 97 1 -0.847600   -0.89200   -8.99900   -1.47600  # oh O1 wat 97
290 97 2  0.423800   -1.23600   -8.24700   -2.03800  # ho H1 wat 97
291 97 2  0.423800   -1.49300   -9.79200   -1.57500  # ho H2 wat 97
292 98 1 -0.847600    1.05700    2.04000   -6.68600  # oh O1 wat 98
293 98 2  0.423800    1.81700    1.39700   -6.78000  # ho H1 wat 98
294 98 2  0.423800    1.41600    2.97100   -6.61600  # ho H2 wat 98
295 99 1 -0.847600    0.03000    9.93900    0.08300  # oh O1 wat 99
296 99 2  0.423800   -0.80900    9.85200   -0.45400  # ho H1 wat 99
297 99 2  0.423800    0.40600   10.85800   -0.03400  # ho H2 wat 99
298 100 1 -0.847600    5.24900   -5.59500   10.11000  # oh O1 wat 100
299 100 2  0.423800    6.06400   -5.33300   10.62600  # ho H1 wat 100
300 100 2  0.423800    4.91700   -6.47900   10.43900  # ho H2 wat 100
301 101 1 -0.847600   -4.41700    2.79800    4.79200  # oh O1 wat 101
302 101 2  0.423800   -3.70300    2.47600    5.41400  # ho H1 wat 101
303 101 2  0.423800   -4.38100    3.79600    4.73200  # ho H2 wat 101
304 102 1 -0.847600    5.08400    0.94700    8.21000  # oh O1 wat 102
305 102 2  0.423800    5.97500    1.35200    8.00400  # ho H1 wat 102
306 102 2  0.423800    4.66700    0.61300    7.36600  # ho H2 wat 102
307 103 1 -0.847600    4.58600    7.35600    5.13000  # oh O1 wat 103
308 103 2  0.423800    4.45600    7.81000    6.01100  # ho H1 wat 103
309 103 2  0.423800    5.42200    6.80800    5.15900  # ho H2 wat 103
310 104 1 -0.847600   -1.96800    5.91500   -3.13400  # oh O1 wat 104
311 104 2  0.423800   -2.32100    4.99700   -2.95400  # ho H1 wat 104
312 104 2  0.423800   -2.61200    6.59400   -2.78200  # ho H2 wat 104
313 105 1 -0.847600   -4.04800   -3.03700   -0.90600  # oh O1 wat 105
314 105 2  0.423800   -4.10000   -4.03100   -0.99700  # ho H1 wat 105
315 105 2  0.423800   -4.87800   -2.62400   -1.28100  # ho H2 wat 105
316 106 1 -0.847600   -2.81800   -5.54400   -3.52700  # oh O1 wat 106
317 106 2  0.423800   -3.53900   -4.85300   -3.47200  # ho H1 wat 106
318 106 2  0.423800   -1.98000   -5.18500   -3.11400  # ho H2 wat 106
319 107 1 -0.847600    1.38300    6.64100    6.56400  # oh O1 wat 107
320 107 2  0.423800    0.98300    5.80900    6.17700  # ho H1 wat 107
321 107 2  0.423800    2.36300    6.50400    6.70600  # ho H2 wat 107
322 108 1 -0.847600    9.93800   -9.25600   -7.80200  # oh O1 wat 108
323 108 2  0.423800    9.22600   -9.48700   -7.13900  # ho H1 wat 108
324 108 2  0.423800   10.81200   -9.14600   -7.32700  # ho H2 wat 108
325 109 1 -0.847600   -5.63300   -7.20600    8.99400  # oh O1 wat 109
326 109 2  0.423800   -5.84800   -7.09700    8.02300  # ho H1 wat 109
327 109 2  0.423800   -5.39600   -6.31700    9.38500  # ho H2 wat 109
328 110 1 -0.847600    3.91300   -7.22000    5.34300  # oh O1 wat 110
329 110 2  0.423800    3.16700   -7.35400    5.99600  # ho H1 wat 110
330 110 2  0.423800    4.39400   -6.37000    5.55600  # ho H2 wat 110
331 111 1 -0.847600    1.87900    2.33200   -8.85200  # oh O1 wat 111
332 111 2  0.423800    2.79900    2.41500   -8.46800  # ho H1 wat 111
333 111 2  0.423800    1.65500    1.36500   -8.97400  # ho H2 wat 111
334 112 1 -0.847600   -1.69300   -2.81400    6.30800  # oh O1 wat 112
335 112 2  0.423800   -1.91300   -3.13300    5.38600  # ho H1 wat 112
336 112 2  0.423800   -0.89700   -2.21000    6.27000  # ho H2 wat 112
337 113 1 -0.847600   -6.14100   -2.13300    7.01800  # oh O1 wat 113
338 113 2  0.423800   -6.61400   -1.25200    7.03300  # ho H1 wat 113
339 113 2  0.423800   -6.78900   -2.85500    6.77500  # ho H2 wat 113
340 114 1 -0.847600   -0.22100    7.53600    1.75600  # oh O1 wat 114
341 114 2  0.423800    0.71700    7.20500    1.86300  # ho H1 wat 114
342 114 2  0.423800   -0.24600    8.52300    1.91400  # ho H2 wat 114
343 115 1 -0.847600   -1.25000   -8.35800   10.32700  # oh O1 wat 115
344 115 2  0.423800   -0.75800   -9.22800   10.33300  # ho H1 wat 115
345 115 2  0.423800   -2.23400   -8.53100   10.36200  # ho H2 wat 115
346 116 1 -0.847600   -5.08100    4.80300    6.91600  # oh O1 wat 116
347 116 2  0.423800   -6.01200    4.43800    6.89700  # ho H1 wat 116
348 116 2  0.423800   -4.43000    4.05000    7.01200  # ho H2 wat 116
349 117 1 -0.847600    0.09500   -4.02700    5.47000  # oh O1 wat 117
350 117 2  0.423800    0.99300   -3.88000    5.88300  # ho H1 wat 117
351 117 2  0.423800   -0.12400   -5.00300    5.48800  # ho H2 wat 117
352 118 1 -0.847600    7.96600    6.73500   -1.12200  # oh O1 wat 118
353 118 2  0.423800    7.05800    6.85600   -0.72100  # ho H1 wat 118
354 118 2  0.423800    8.09000    7.39000   -1.86800  # ho H2 wat 118
355 119 1 -0.847600   -1.88700   -7.02000   -9.13100  # oh O1 wat 119
356 119 2  0.423800   -2.72300   -7.27900   -9.61400  # ho H1 wat 119
357 119 2  0.423800   -1.25300   -7.79400   -9.12500  # ho H2 wat 119
358 120 1 -0.847600    2.00700   -7.38600    1.58500  # oh O1 wat 120
359 120 2  0.423800    2.82500   -7.04700    2.04800  # ho H1 wat 120
360 120 2  0.423800    2.19800   -8.28200    1.18400  # ho H2 wat 120
361 121 1 -0.847600   -2.33100   -0.54100    8.05900  # oh O1 wat 121
362 121 2  0.423800   -2.02200   -0.47000    7.11000  # ho H1 wat 121
363 121 2  0.423800   -3.20600   -0.06800    8.16100  # ho H2 wat 121
364 122 1 -0.847600    2.14000   -1.38800    2.64400  # oh O1 wat 122
365 122 2  0.423800    2.51700   -1.92800    1.89200  # ho H1 wat 122
366 122 2  0.423800    2.58400   -1.65400    3.50000  # ho H2 wat 122
367 123 1 -0.847600    8.48800    0.39500   -4.45900  # oh O1 wat 123
368 123 2  0.423800    7.98200    1.14200   -4.89100  # ho H1 wat 123
369 123 2  0.423800    9.37200    0.73500   -4.13700  # ho H2 wat 123
370 124 1 -0.847600   -9.76600    8.66600    7.44600  # oh O1 wat 124
371 124 2  0.423800  -10.07500    8.44400    8.37000  # ho H1 wat 124
372 124 2  0.423800  -10.53500    8.59700    6.81100  # ho H2 wat 124
373 125 1 -0.847600    1.71300   -5.68000   -0.04400  # oh O1 wat 125
374 125 2  0.423800    2.17400   -5.00400    0.53100  # ho H1 wat 125
375 125 2  0.423800    0.72900   -5.64800    0.12800  # ho H2 wat 125
376 126 1 -0.847600    4.26600   -7.87800   -7.56900  # oh O1 wat 126
377 126 2  0.423800    4.44900   -6.98700   -7.15400  # ho H1 wat 126
378 126 2  0.423800    5.11900   -8.26100   -7.92300  # ho H2 wat 126
379 127 1 -0.847600    3.69600    5.15600    4.83300  # oh O1 wat 127
380 127 2  0.423800    4.25400    4.43400    4.42400  # ho H1 wat 127
381 127 2  0.423800    2.73500    5.00300    4.60500  # ho H2 wat 127
382 128 1 -0.847600    3.58000    0.18700   -0.74500  # oh O1 wat 128
383 128 2  0.423800    3.17200    1.04800   -0.44100  # ho H1 wat 128
384 128 2  0.423800    4.50000    0.36100   -1.09700  # ho H2 wat 128
385 129 1 -0.847600   -9.56400   -6.93500   -7.91000  # oh O1 wat 129
386 129 2  0.423800  -10.05800   -6.16500   -8.31200  # ho H1 wat 129
387 129 2  0.423800  -10.19700   -7.69300   -7.75500  # ho H2 wat 129
388 130 1 -0.847600   -7.63300    1.47700   -1.69300  # oh O1 wat 130
389 130 2  0.423800   -6.79500    2.01400   -1.79400  # ho H1 wat 130
390 130 2  0.423800   -8.22900    1.63800   -2.48000  # ho H2 wat 130
391 131 1 -0.847600    1.88900    1.39800    4.21800  # oh O1 wat 131
392 131 2  0.423800    1.26200    1.31400    4.99300  # ho H1 wat 131
393 131 2  0.423800    2.35800    0.52700    4.07200  # ho H2 wat 131
394 132 1 -0.847600   -8.80600   -1.71400    9.77400  # oh O1 wat 132
395 132 2  0.423800   -9.12200   -2.15700    8.93500  # ho H1 wat 132
396 132 2  0.423800   -7.86900   -1.39000    9.64700  # ho H2 wat 132
397 133 1 -0.847600   -8.20300    4.61600    4.68500  # oh O1 wat 133
398 133 2  0.423800   -8.03600    4.34900    3.73600  # ho H1 wat 133
399 133 2  0.423800   -9.17100    4.49200    4.90100  # ho H2 wat 133
400 134 1 -0.847600   -4.91800   -8.12400    2.33300  # oh O1 wat 134
401 134 2  0.423800   -5.59300   -7.92700    1.62200  # ho H1 wat 134
402 134 2  0.423800   -5.32100   -8.73700    3.01300  # ho H2 wat 134
403 135 1 -0.847600    0.09700    5.91400   -7.58500  # oh O1 wat 135
404 135 2  0.423800    0.59900    5.13200   -7.95500  # ho H1 wat 135
405 135 2  0.423800   -0.79500    5.60900   -7.25100  # ho H2 wat 135
406 136 1 -0.847600   -1.88500   -7.70900    4.33200  # oh O1 wat 136
407 136 2  0.423800   -1.32700   -8.45800    4.68900  # ho H1 wat 136
408 136 2  0.423800   -1.29000   -6.96400    4.03300  # ho H2 wat 136
409 137 1 -0.847600   -7.74200    1.38900    4.48700  # oh O1 wat 137
410 137 2  0.423800   -7.42300    2.33400    4.41900  # ho H1 wat 137
411 137 2  0.423800   -8.73700    1.36600    4.38900  # ho H2 wat 137
412 138 1 -0.847600    0.38300    6.32700    9.14600  # oh O1 wat 138
413 138 2  0.423800   -0.33400    7.02300    9.13400  # ho H1 wat 138
414 138 2  0.423800    1.27900    6.77100    9.11700  # ho H2 wat 138
415 139 1 -0.847600   -3.02800    4.59000    9.33800  # oh O1 wat 139
416 139 2  0.423800   -3.61400    3.83500    9.04400  # ho H1 wat 139
417 139 2  0.423800   -3.50700    5.45700    9.19800  # ho H2 wat 139
418 140 1 -0.847600   -7.69200   -9.84700   -7.24900  # oh O1 wat 140
419 140 2  0.423800   -7.29000   -9.28900   -6.52300  # ho H1 wat 140
420 140 2  0.423800   -7.24100  -10.74000   -7.27100  # ho H2 wat 140
421 141 1 -0.847600    9.77100    3.29300    6.48300  # oh O1 wat 141
422 141 2  0.423800    9.79200    3.38800    7.47900  # ho H1 wat 141
423 141 2  0.423800   10.61800    3.65700    6.09600  # ho H2 wat 141
424 142 1 -0.847600    6.36900    0.63400   -2.75800  # oh O1 wat 142
425 142 2  0.423800    6.62500   -0.26100   -3.12300  # ho H1 wat 142
426 142 2  0.423800    5.69100    1.05700   -3.36000  # ho H2 wat 142
427 143 1 -0.847600   -4.74100   -8.00000    5.65300  # oh O1 wat 143
428 143 2  0.423800   -4.62300   -8.85600    5.15100  # ho H1 wat 143
429 143 2  0.423800   -4.27300   -7.26100    5.16700  # ho H2 wat 143
430 144 1 -0.847600   -1.36100   -9.51400   -7.10200  # oh O1 wat 144
431 144 2  0.423800   -1.56100  -10.42200   -6.73600  # ho H1 wat 144
432 144 2  0.423800   -0.60900   -9.57700   -7.75800  # ho H2 wat 144
433 145 1 -0.847600   -9.66300   -3.32700   -4.62100  # oh O1 wat 145