LAMMPS data file. CGCMM style. atom_style full generated by VMD/TopoTools v1.7 on Tue Aug 29 17:36:14 EDT 2017
 320 atoms
 320 bonds
 320 angles
 320 dihedrals
 0 impropers
 1 atom types
 1 bond types
 1 angle types
 1 dihedral types
 0 improper types
 -200.041214 199.958786  xlo xhi
 -200.112251 199.887749  ylo yhi
 -200.048836 199.951164  zlo zhi

# Pair Coeffs
#
# 1  CH2

# Bond Coeffs
#
# 1  CH2-CH2

# Angle Coeffs
#
# 1  CH2-CH2-CH2

# Dihedral Coeffs
#
# 1  CH2-CH2-CH2-CH2

 Masses

 1 14.026580 # CH2

 Atoms # full

1 1 1 0.000000 -150.483780 -148.995544 -149.353577 # CH2 
2 1 1 0.000000 -149.443466 -148.933578 -150.466415 # CH2 
3 1 1 0.000000 -149.011597 -150.371765 -150.744095 # CH2 
4 1 1 0.000000 -149.997925 -151.290924 -150.025024 # CH2 
5 1 1 0.000000 -151.070831 -150.401016 -149.404480 # CH2 
6 1 1 0.000000 -150.483780 -148.995544 -49.353580 # CH2 
7 1 1 0.000000 -149.443466 -148.933578 -50.466412 # CH2 
8 1 1 0.000000 -149.011597 -150.371765 -50.744099 # CH2 
9 1 1 0.000000 -149.997925 -151.290924 -50.025021 # CH2 
10 1 1 0.000000 -151.070831 -150.401016 -49.404480 # CH2 
11 1 1 0.000000 -150.483780 -148.995544 50.646420 # CH2 
12 1 1 0.000000 -149.443466 -148.933578 49.533588 # CH2 
13 1 1 0.000000 -149.011597 -150.371765 49.255901 # CH2 
14 1 1 0.000000 -149.997925 -151.290924 49.974979 # CH2 
15 1 1 0.000000 -151.070831 -150.401016 50.595520 # CH2 
16 1 1 0.000000 -150.483780 -148.995544 150.646423 # CH2 
17 1 1 0.000000 -149.443466 -148.933578 149.533585 # CH2 
18 1 1 0.000000 -149.011597 -150.371765 149.255905 # CH2 
19 1 1 0.000000 -149.997925 -151.290924 149.974976 # CH2 
20 1 1 0.000000 -151.070831 -150.401016 150.595520 # CH2 
21 1 1 0.000000 -150.483780 -48.995541 -149.353577 # CH2 
22 1 1 0.000000 -149.443466 -48.933578 -150.466415 # CH2 
23 1 1 0.000000 -149.011597 -50.371769 -150.744095 # CH2 
24 1 1 0.000000 -149.997925 -51.290920 -150.025024 # CH2 
25 1 1 0.000000 -151.070831 -50.401020 -149.404480 # CH2 
26 1 1 0.000000 -150.483780 -48.995541 -49.353580 # CH2 
27 1 1 0.000000 -149.443466 -48.933578 -50.466412 # CH2 
28 1 1 0.000000 -149.011597 -50.371769 -50.744099 # CH2 
29 1 1 0.000000 -149.997925 -51.290920 -50.025021 # CH2 
30 1 1 0.000000 -151.070831 -50.401020 -49.404480 # CH2 
31 1 1 0.000000 -150.483780 -48.995541 50.646420 # CH2 
32 1 1 0.000000 -149.443466 -48.933578 49.533588 # CH2 
33 1 1 0.000000 -149.011597 -50.371769 49.255901 # CH2 
34 1 1 0.000000 -149.997925 -51.290920 49.974979 # CH2 
35 1 1 0.000000 -151.070831 -50.401020 50.595520 # CH2 
36 1 1 0.000000 -150.483780 -48.995541 150.646423 # CH2 
37 1 1 0.000000 -149.443466 -48.933578 149.533585 # CH2 
38 1 1 0.000000 -149.011597 -50.371769 149.255905 # CH2 
39 1 1 0.000000 -149.997925 -51.290920 149.974976 # CH2 
40 1 1 0.000000 -151.070831 -50.401020 150.595520 # CH2 
41 1 1 0.000000 -150.483780 51.004459 -149.353577 # CH2 
42 1 1 0.000000 -149.443466 51.066422 -150.466415 # CH2 
43 1 1 0.000000 -149.011597 49.628231 -150.744095 # CH2 
44 1 1 0.000000 -149.997925 48.709080 -150.025024 # CH2 
45 1 1 0.000000 -151.070831 49.598980 -149.404480 # CH2 
46 1 1 0.000000 -150.483780 51.004459 -49.353580 # CH2 
47 1 1 0.000000 -149.443466 51.066422 -50.466412 # CH2 
48 1 1 0.000000 -149.011597 49.628231 -50.744099 # CH2 
49 1 1 0.000000 -149.997925 48.709080 -50.025021 # CH2 
50 1 1 0.000000 -151.070831 49.598980 -49.404480 # CH2 
51 1 1 0.000000 -150.483780 51.004459 50.646420 # CH2 
52 1 1 0.000000 -149.443466 51.066422 49.533588 # CH2 
53 1 1 0.000000 -149.011597 49.628231 49.255901 # CH2 
54 1 1 0.000000 -149.997925 48.709080 49.974979 # CH2 
55 1 1 0.000000 -151.070831 49.598980 50.595520 # CH2 
56 1 1 0.000000 -150.483780 51.004459 150.646423 # CH2 
57 1 1 0.000000 -149.443466 51.066422 149.533585 # CH2 
58 1 1 0.000000 -149.011597 49.628231 149.255905 # CH2 
59 1 1 0.000000 -149.997925 48.709080 149.974976 # CH2 
60 1 1 0.000000 -151.070831 49.598980 150.595520 # CH2 
61 1 1 0.000000 -150.483780 151.004456 -149.353577 # CH2 
62 1 1 0.000000 -149.443466 151.066422 -150.466415 # CH2 
63 1 1 0.000000 -149.011597 149.628235 -150.744095 # CH2 
64 1 1 0.000000 -149.997925 148.709076 -150.025024 # CH2 
65 1 1 0.000000 -151.070831 149.598984 -149.404480 # CH2 
66 1 1 0.000000 -150.483780 151.004456 -49.353580 # CH2 
67 1 1 0.000000 -149.443466 151.066422 -50.466412 # CH2 
68 1 1 0.000000 -149.011597 149.628235 -50.744099 # CH2 
69 1 1 0.000000 -149.997925 148.709076 -50.025021 # CH2 
70 1 1 0.000000 -151.070831 149.598984 -49.404480 # CH2 
71 1 1 0.000000 -150.483780 151.004456 50.646420 # CH2 
72 1 1 0.000000 -149.443466 151.066422 49.533588 # CH2 
73 1 1 0.000000 -149.011597 149.628235 49.255901 # CH2 
74 1 1 0.000000 -149.997925 148.709076 49.974979 # CH2 
75 1 1 0.000000 -151.070831 149.598984 50.595520 # CH2 
76 1 1 0.000000 -150.483780 151.004456 150.646423 # CH2 
77 1 1 0.000000 -149.443466 151.066422 149.533585 # CH2 
78 1 1 0.000000 -149.011597 149.628235 149.255905 # CH2 
79 1 1 0.000000 -149.997925 148.709076 149.974976 # CH2 
80 1 1 0.000000 -151.070831 149.598984 150.595520 # CH2 
81 1 1 0.000000 -50.483780 -148.995544 -149.353577 # CH2 
82 1 1 0.000000 -49.443459 -148.933578 -150.466415 # CH2 
83 1 1 0.000000 -49.011600 -150.371765 -150.744095 # CH2 
84 1 1 0.000000 -49.997921 -151.290924 -150.025024 # CH2 
85 1 1 0.000000 -51.070831 -150.401016 -149.404480 # CH2 
86 1 1 0.000000 -50.483780 -148.995544 -49.353580 # CH2 
87 1 1 0.000000 -49.443459 -148.933578 -50.466412 # CH2 
88 1 1 0.000000 -49.011600 -150.371765 -50.744099 # CH2 
89 1 1 0.000000 -49.997921 -151.290924 -50.025021 # CH2 
90 1 1 0.000000 -51.070831 -150.401016 -49.404480 # CH2 
91 1 1 0.000000 -50.483780 -148.995544 50.646420 # CH2 
92 1 1 0.000000 -49.443459 -148.933578 49.533588 # CH2 
93 1 1 0.000000 -49.011600 -150.371765 49.255901 # CH2 
94 1 1 0.000000 -49.997921 -151.290924 49.974979 # CH2 
95 1 1 0.000000 -51.070831 -150.401016 50.595520 # CH2 
96 1 1 0.000000 -50.483780 -148.995544 150.646423 # CH2 
97 1 1 0.000000 -49.443459 -148.933578 149.533585 # CH2 
98 1 1 0.000000 -49.011600 -150.371765 149.255905 # CH2 
99 1 1 0.000000 -49.997921 -151.290924 149.974976 # CH2 
100 1 1 0.000000 -51.070831 -150.401016 150.595520 # CH2 
101 1 1 0.000000 -50.483780 -48.995541 -149.353577 # CH2 
102 1 1 0.000000 -49.443459 -48.933578 -150.466415 # CH2 
103 1 1 0.000000 -49.011600 -50.371769 -150.744095 # CH2 
104 1 1 0.000000 -49.997921 -51.290920 -150.025024 # CH2 
105 1 1 0.000000 -51.070831 -50.401020 -149.404480 # CH2 
106 1 1 0.000000 -50.483780 -48.995541 -49.353580 # CH2 
107 1 1 0.000000 -49.443459 -48.933578 -50.466412 # CH2 
108 1 1 0.000000 -49.011600 -50.371769 -50.744099 # CH2 
109 1 1 0.000000 -49.997921 -51.290920 -50.025021 # CH2 
110 1 1 0.000000 -51.070831 -50.401020 -49.404480 # CH2 
111 1 1 0.000000 -50.483780 -48.995541 50.646420 # CH2 
112 1 1 0.000000 -49.443459 -48.933578 49.533588 # CH2 
113 1 1 0.000000 -49.011600 -50.371769 49.255901 # CH2 
114 1 1 0.000000 -49.997921 -51.290920 49.974979 # CH2 
115 1 1 0.000000 -51.070831 -50.401020 50.595520 # CH2 
116 1 1 0.000000 -50.483780 -48.995541 150.646423 # CH2 
117 1 1 0.000000 -49.443459 -48.933578 149.533585 # CH2 
118 1 1 0.000000 -49.011600 -50.371769 149.255905 # CH2 
119 1 1 0.000000 -49.997921 -51.290920 149.974976 # CH2 
120 1 1 0.000000 -51.070831 -50.401020 150.595520 # CH2 
121 1 1 0.000000 -50.483780 51.004459 -149.353577 # CH2 
122 1 1 0.000000 -49.443459 51.066422 -150.466415 # CH2 
123 1 1 0.000000 -49.011600 49.628231 -150.744095 # CH2 
124 1 1 0.000000 -49.997921 48.709080 -150.025024 # CH2 
125 1 1 0.000000 -51.070831 49.598980 -149.404480 # CH2 
126 1 1 0.000000 -50.483780 51.004459 -49.353580 # CH2 
127 1 1 0.000000 -49.443459 51.066422 -50.466412 # CH2 
128 1 1 0.000000 -49.011600 49.628231 -50.744099 # CH2 
129 1 1 0.000000 -49.997921 48.709080 -50.025021 # CH2 
130 1 1 0.000000 -51.070831 49.598980 -49.404480 # CH2 
131 1 1 0.000000 -50.483780 51.004459 50.646420 # CH2 
132 1 1 0.000000 -49.443459 51.066422 49.533588 # CH2 
133 1 1 0.000000 -49.011600 49.628231 49.255901 # CH2 
134 1 1 0.000000 -49.997921 48.709080 49.974979 # CH2 
135 1 1 0.000000 -51.070831 49.598980 50.595520 # CH2 
136 1 1 0.000000 -50.483780 51.004459 150.646423 # CH2 
137 1 1 0.000000 -49.443459 51.066422 149.533585 # CH2 
138 1 1 0.000000 -49.011600 49.628231 149.255905 # CH2 
139 1 1 0.000000 -49.997921 48.709080 149.974976 # CH2 
140 1 1 0.000000 -51.070831 49.598980 150.595520 # CH2 
141 1 1 0.000000 -50.483780 151.004456 -149.353577 # CH2 
142 1 1 0.000000 -49.443459 151.066422 -150.466415 # CH2 
143 1 1 0.000000 -49.011600 149.628235 -150.744095 # CH2 
144 1 1 0.000000 -49.997921 148.709076 -150.025024 # CH2 
145 1 1 0.000000 -51.070831 149.598984 -149.404480 # CH2 
146 1 1 0.000000 -50.483780 151.004456 -49.353580 # CH2 
147 1 1 0.000000 -49.443459 151.066422 -50.466412 # CH2 
148 1 1 0.000000 -49.011600 149.628235 -50.744099 # CH2 
149 1 1 0.000000 -49.997921 148.709076 -50.025021 # CH2 
150 1 1 0.000000 -51.070831 149.598984 -49.404480 # CH2 
151 1 1 0.000000 -50.483780 151.004456 50.646420 # CH2 
152 1 1 0.000000 -49.443459 151.066422 49.533588 # CH2 
153 1 1 0.000000 -49.011600 149.628235 49.255901 # CH2 
154 1 1 0.000000 -49.997921 148.709076 49.974979 # CH2 
155 1 1 0.000000 -51.070831 149.598984 50.595520 # CH2 
156 1 1 0.000000 -50.483780 151.004456 150.646423 # CH2 
157 1 1 0.000000 -49.443459 151.066422 149.533585 # CH2 
158 1 1 0.000000 -49.011600 149.628235 149.255905 # CH2 
159 1 1 0.000000 -49.997921 148.709076 149.974976 # CH2 
160 1 1 0.000000 -51.070831 149.598984 150.595520 # CH2 
161 1 1 0.000000 49.516220 -148.995544 -149.353577 # CH2 
162 1 1 0.000000 50.556541 -148.933578 -150.466415 # CH2 
163 1 1 0.000000 50.988400 -150.371765 -150.744095 # CH2 
164 1 1 0.000000 50.002079 -151.290924 -150.025024 # CH2 
165 1 1 0.000000 48.929169 -150.401016 -149.404480 # CH2 
166 1 1 0.000000 49.516220 -148.995544 -49.353580 # CH2 
167 1 1 0.000000 50.556541 -148.933578 -50.466412 # CH2 
168 1 1 0.000000 50.988400 -150.371765 -50.744099 # CH2 
169 1 1 0.000000 50.002079 -151.290924 -50.025021 # CH2 
170 1 1 0.000000 48.929169 -150.401016 -49.404480 # CH2 
171 1 1 0.000000 49.516220 -148.995544 50.646420 # CH2 
172 1 1 0.000000 50.556541 -148.933578 49.533588 # CH2 
173 1 1 0.000000 50.988400 -150.371765 49.255901 # CH2 
174 1 1 0.000000 50.002079 -151.290924 49.974979 # CH2 
175 1 1 0.000000 48.929169 -150.401016 50.595520 # CH2 
176 1 1 0.000000 49.516220 -148.995544 150.646423 # CH2 
177 1 1 0.000000 50.556541 -148.933578 149.533585 # CH2 
178 1 1 0.000000 50.988400 -150.371765 149.255905 # CH2 
179 1 1 0.000000 50.002079 -151.290924 149.974976 # CH2 
180 1 1 0.000000 48.929169 -150.401016 150.595520 # CH2 
181 1 1 0.000000 49.516220 -48.995541 -149.353577 # CH2 
182 1 1 0.000000 50.556541 -48.933578 -150.466415 # CH2 
183 1 1 0.000000 50.988400 -50.371769 -150.744095 # CH2 
184 1 1 0.000000 50.002079 -51.290920 -150.025024 # CH2 
185 1 1 0.000000 48.929169 -50.401020 -149.404480 # CH2 
186 1 1 0.000000 49.516220 -48.995541 -49.353580 # CH2 
187 1 1 0.000000 50.556541 -48.933578 -50.466412 # CH2 
188 1 1 0.000000 50.988400 -50.371769 -50.744099 # CH2 
189 1 1 0.000000 50.002079 -51.290920 -50.025021 # CH2 
190 1 1 0.000000 48.929169 -50.401020 -49.404480 # CH2 
191 1 1 0.000000 49.516220 -48.995541 50.646420 # CH2 
192 1 1 0.000000 50.556541 -48.933578 49.533588 # CH2 
193 1 1 0.000000 50.988400 -50.371769 49.255901 # CH2 
194 1 1 0.000000 50.002079 -51.290920 49.974979 # CH2 
195 1 1 0.000000 48.929169 -50.401020 50.595520 # CH2 
196 1 1 0.000000 49.516220 -48.995541 150.646423 # CH2 
197 1 1 0.000000 50.556541 -48.933578 149.533585 # CH2 
198 1 1 0.000000 50.988400 -50.371769 149.255905 # CH2 
199 1 1 0.000000 50.002079 -51.290920 149.974976 # CH2 
200 1 1 0.000000 48.929169 -50.401020 150.595520 # CH2 
201 1 1 0.000000 49.516220 51.004459 -149.353577 # CH2 
202 1 1 0.000000 50.556541 51.066422 -150.466415 # CH2 
203 1 1 0.000000 50.988400 49.628231 -150.744095 # CH2 
204 1 1 0.000000 50.002079 48.709080 -150.025024 # CH2 
205 1 1 0.000000 48.929169 49.598980 -149.404480 # CH2 
206 1 1 0.000000 49.516220 51.004459 -49.353580 # CH2 
207 1 1 0.000000 50.556541 51.066422 -50.466412 # CH2 
208 1 1 0.000000 50.988400 49.628231 -50.744099 # CH2 
209 1 1 0.000000 50.002079 48.709080 -50.025021 # CH2 
210 1 1 0.000000 48.929169 49.598980 -49.404480 # CH2 
211 1 1 0.000000 49.516220 51.004459 50.646420 # CH2 
212 1 1 0.000000 50.556541 51.066422 49.533588 # CH2 
213 1 1 0.000000 50.988400 49.628231 49.255901 # CH2 
214 1 1 0.000000 50.002079 48.709080 49.974979 # CH2 
215 1 1 0.000000 48.929169 49.598980 50.595520 # CH2 
216 1 1 0.000000 49.516220 51.004459 150.646423 # CH2 
217 1 1 0.000000 50.556541 51.066422 149.533585 # CH2 
218 1 1 0.000000 50.988400 49.628231 149.255905 # CH2 
219 1 1 0.000000 50.002079 48.709080 149.974976 # CH2 
220 1 1 0.000000 48.929169 49.598980 150.595520 # CH2 
221 1 1 0.000000 49.516220 151.004456 -149.353577 # CH2 
222 1 1 0.000000 50.556541 151.066422 -150.466415 # CH2 
223 1 1 0.000000 50.988400 149.628235 -150.744095 # CH2 
224 1 1 0.000000 50.002079 148.709076 -150.025024 # CH2 
225 1 1 0.000000 48.929169 149.598984 -149.404480 # CH2 
226 1 1 0.000000 49.516220 151.004456 -49.353580 # CH2 
227 1 1 0.000000 50.556541 151.066422 -50.466412 # CH2 
228 1 1 0.000000 50.988400 149.628235 -50.744099 # CH2 
229 1 1 0.000000 50.002079 148.709076 -50.025021 # CH2 
230 1 1 0.000000 48.929169 149.598984 -49.404480 # CH2 
231 1 1 0.000000 49.516220 151.004456 50.646420 # CH2 
232 1 1 0.000000 50.556541 151.066422 49.533588 # CH2 
233 1 1 0.000000 50.988400 149.628235 49.255901 # CH2 
234 1 1 0.000000 50.002079 148.709076 49.974979 # CH2 
235 1 1 0.000000 48.929169 149.598984 50.595520 # CH2 
236 1 1 0.000000 49.516220 151.004456 150.646423 # CH2 
237 1 1 0.000000 50.556541 151.066422 149.533585 # CH2 
238 1 1 0.000000 50.988400 149.628235 149.255905 # CH2 
239 1 1 0.000000 50.002079 148.709076 149.974976 # CH2 
240 1 1 0.000000 48.929169 149.598984 150.595520 # CH2 
241 1 1 0.000000 149.516220 -148.995544 -149.353577 # CH2 
242 1 1 0.000000 150.556534 -148.933578 -150.466415 # CH2 
243 1 1 0.000000 150.988403 -150.371765 -150.744095 # CH2 
244 1 1 0.000000 150.002075 -151.290924 -150.025024 # CH2 
245 1 1 0.000000 148.929169 -150.401016 -149.404480 # CH2 
246 1 1 0.000000 149.516220 -148.995544 -49.353580 # CH2 
247 1 1 0.000000 150.556534 -148.933578 -50.466412 # CH2 
248 1 1 0.000000 150.988403 -150.371765 -50.744099 # CH2 
249 1 1 0.000000 150.002075 -151.290924 -50.025021 # CH2 
250 1 1 0.000000 148.929169 -150.401016 -49.404480 # CH2 
251 1 1 0.000000 149.516220 -148.995544 50.646420 # CH2 
252 1 1 0.000000 150.556534 -148.933578 49.533588 # CH2 
253 1 1 0.000000 150.988403 -150.371765 49.255901 # CH2 
254 1 1 0.000000 150.002075 -151.290924 49.974979 # CH2 
255 1 1 0.000000 148.929169 -150.401016 50.595520 # CH2 
256 1 1 0.000000 149.516220 -148.995544 150.646423 # CH2 
257 1 1 0.000000 150.556534 -148.933578 149.533585 # CH2 
258 1 1 0.000000 150.988403 -150.371765 149.255905 # CH2 
259 1 1 0.000000 150.002075 -151.290924 149.974976 # CH2 
260 1 1 0.000000 148.929169 -150.401016 150.595520 # CH2 
261 1 1 0.000000 149.516220 -48.995541 -149.353577 # CH2 
262 1 1 0.000000 150.556534 -48.933578 -150.466415 # CH2 
263 1 1 0.000000 150.988403 -50.371769 -150.744095 # CH2 
264 1 1 0.000000 150.002075 -51.290920 -150.025024 # CH2 
265 1 1 0.000000 148.929169 -50.401020 -149.404480 # CH2 
266 1 1 0.000000 149.516220 -48.995541 -49.353580 # CH2 
267 1 1 0.000000 150.556534 -48.933578 -50.466412 # CH2 
268 1 1 0.000000 150.988403 -50.371769 -50.744099 # CH2 
269 1 1 0.000000 150.002075 -51.290920 -50.025021 # CH2 
270 1 1 0.000000 148.929169 -50.401020 -49.404480 # CH2 
271 1 1 0.000000 149.516220 -48.995541 50.646420 # CH2 
272 1 1 0.000000 150.556534 -48.933578 49.533588 # CH2 
273 1 1 0.000000 150.988403 -50.371769 49.255901 # CH2 
274 1 1 0.000000 150.002075 -51.290920 49.974979 # CH2 
275 1 1 0.000000 148.929169 -50.401020 50.595520 # CH2 
276 1 1 0.000000 149.516220 -48.995541 150.646423 # CH2 
277 1 1 0.000000 150.556534 -48.933578 149.533585 # CH2 
278 1 1 0.000000 150.988403 -50.371769 149.255905 # CH2 
279 1 1 0.000000 150.002075 -51.290920 149.974976 # CH2 
280 1 1 0.000000 148.929169 -50.401020 150.595520 # CH2 
281 1 1 0.000000 149.516220 51.004459 -149.353577 # CH2 
282 1 1 0.000000 150.556534 51.066422 -150.466415 # CH2 
283 1 1 0.000000 150.988403 49.628231 -150.744095 # CH2 
284 1 1 0.000000 150.002075 48.709080 -150.025024 # CH2 
285 1 1 0.000000 148.929169 49.598980 -149.404480 # CH2 
286 1 1 0.000000 149.516220 51.004459 -49.353580 # CH2 
287 1 1 0.000000 150.556534 51.066422 -50.466412 # CH2 
288 1 1 0.000000 150.988403 49.628231 -50.744099 # CH2 
289 1 1 0.000000 150.002075 48.709080 -50.025021 # CH2 
290 1 1 0.000000 148.929169 49.598980 -49.404480 # CH2 
291 1 1 0.000000 149.516220 51.004459 50.646420 # CH2 
292 1 1 0.000000 150.556534 51.066422 49.533588 # CH2 
293 1 1 0.000000 150.988403 49.628231 49.255901 # CH2 
294 1 1 0.000000 150.002075 48.709080 49.974979 # CH2 
295 1 1 0.000000 148.929169 49.598980 50.595520 # CH2 
296 1 1 0.000000 149.516220 51.004459 150.646423 # CH2 
297 1 1 0.000000 150.556534 51.066422 149.533585 # CH2 
298 1 1 0.000000 150.988403 49.628231 149.255905 # CH2 
299 1 1 0.000000 150.002075 48.709080 149.974976 # CH2 
300 1 1 0.000000 148.929169 49.598980 150.595520 # CH2 
301 1 1 0.000000 149.516220 151.004456 -149.353577 # CH2 
302 1 1 0.000000 150.556534 151.066422 -150.466415 # CH2 
303 1 1 0.000000 150.988403 149.628235 -150.744095 # CH2 
304 1 1 0.000000 150.002075 148.709076 -150.025024 # CH2 
305 1 1 0.000000 148.929169 149.598984 -149.404480 # CH2 
306 1 1 0.000000 149.516220 151.004456 -49.353580 # CH2 
307 1 1 0.000000 150.556534 151.066422 -50.466412 # CH2 
308 1 1 0.000000 150.988403 149.628235 -50.744099 # CH2 
309 1 1 0.000000 150.002075 148.709076 -50.025021 # CH2 
310 1 1 0.000000 148.929169 149.598984 -49.404480 # CH2 
311 1 1 0.000000 149.516220 151.004456 50.646420 # CH2 
312 1 1 0.000000 150.556534 151.066422 49.533588 # CH2 
313 1 1 0.000000 150.988403 149.628235 49.255901 # CH2 
314 1 1 0.000000 150.002075 148.709076 49.974979 # CH2 
315 1 1 0.000000 148.929169 149.598984 50.595520 # CH2 
316 1 1 0.000000 149.516220 151.004456 150.646423 # CH2 
317 1 1 0.000000 150.556534 151.066422 149.533585 # CH2 
318 1 1 0.000000 150.988403 149.628235 149.255905 # CH2 
319 1 1 0.000000 150.002075 148.709076 149.974976 # CH2 
320 1 1 0.000000 148.929169 149.598984 150.595520 # CH2 

 Bonds

1 1 1 2
2 1 1 5
3 1 2 3
4 1 3 4
5 1 4 5
6 1 6 7
7 1 6 10
8 1 7 8
9 1 8 9
10 1 9 10
11 1 11 12
12 1 11 15
13 1 12 13
14 1 13 14
15 1 14 15
16 1 16 17
17 1 16 20
18 1 17 18
19 1 18 19
20 1 19 20
21 1 21 22
22 1 21 25
23 1 22 23
24 1 23 24
25 1 24 25
26 1 26 27
27 1 26 30
28 1 27 28
29 1 28 29
30 1 29 30
31 1 31 32
32 1 31 35
33 1 32 33
34 1 33 34
35 1 34 35
36 1 36 37
37 1 36 40
38 1 37 38
39 1 38 39
40 1 39 40
41 1 41 42
42 1 41 45
43 1 42 43
44 1 43 44
45 1 44 45
46 1 46 47
47 1 46 50
48 1 47 48
49 1 48 49
50 1 49 50
51 1 51 52
52 1 51 55
53 1 52 53
54 1 53 54
55 1 54 55
56 1 56 57
57 1 56 60
58 1 57 58
59 1 58 59
60 1 59 60
61 1 61 62
62 1 61 65
63 1 62 63
64 1 63 64
65 1 64 65
66 1 66 67
67 1 66 70
68 1 67 68
69 1 68 69
70 1 69 70
71 1 71 72
72 1 71 75
73 1 72 73
74 1 73 74
75 1 74 75
76 1 76 77
77 1 76 80
78 1 77 78
79 1 78 79
80 1 79 80
81 1 81 82
82 1 81 85
83 1 82 83
84 1 83 84
85 1 84 85
86 1 86 87
87 1 86 90
88 1 87 88
89 1 88 89
90 1 89 90
91 1 91 92
92 1 91 95
93 1 92 93
94 1 93 94
95 1 94 95
96 1 96 97
97 1 96 100
98 1 97 98
99 1 98 99
100 1 99 100
101 1 101 102
102 1 101 105
103 1 102 103
104 1 103 104
105 1 104 105
106 1 106 107
107 1 106 110
108 1 107 108
109 1 108 109
110 1 109 110
111 1 111 112
112 1 111 115
113 1 112 113
114 1 113 114
115 1 114 115
116 1 116 117
117 1 116 120
118 1 117 118
119 1 118 119
120 1 119 120
121 1 121 122
122 1 121 125
123 1 122 123
124 1 123 124
125 1 124 125
126 1 126 127
127 1 126 130
128 1 127 128
129 1 128 129
130 1 129 130
131 1 131 132
132 1 131 135
133 1 132 133
134 1 133 134
135 1 134 135
136 1 136 137
137 1 136 140
138 1 137 138
139 1 138 139
140 1 139 140
141 1 141 142
142 1 141 145
143 1 142 143
144 1 143 144
145 1 144 145
146 1 146 147
147 1 146 150
148 1 147 148
149 1 148 149
150 1 149 150
151 1 151 152
152 1 151 155
153 1 152 153
154 1 153 154
155 1 154 155
156 1 156 157
157 1 156 160
158 1 157 158
159 1 158 159
160 1 159 160
161 1 161 162
162 1 161 165
163 1 162 163
164 1 163 164
165 1 164 165
166 1 166 167
167 1 166 170
168 1 167 168
169 1 168 169
170 1 169 170
171 1 171 172
172 1 171 175
173 1 172 173
174 1 173 174
175 1 174 175
176 1 176 177
177 1 176 180
178 1 177 178
179 1 178 179
180 1 179 180
181 1 181 182
182 1 181 185
183 1 182 183
184 1 183 184
185 1 184 185
186 1 186 187
187 1 186 190
188 1 187 188
189 1 188 189
190 1 189 190
191 1 191 192
192 1 191 195
193 1 192 193
194 1 193 194
195 1 194 195
196 1 196 197
197 1 196 200
198 1 197 198
199 1 198 199
200 1 199 200
201 1 201 202
202 1 201 205
203 1 202 203
204 1 203 204
205 1 204 205
206 1 206 207
207 1 206 210
208 1 207 208
209 1 208 209
210 1 209 210
211 1 211 212
212 1 211 215
213 1 212 213
214 1 213 214
215 1 214 215
216 1 216 217
217 1 216 220
218 1 217 218
219 1 218 219
220 1 219 220
221 1 221 222
222 1 221 225
223 1 222 223
224 1 223 224
225 1 224 225
226 1 226 227
227 1 226 230
228 1 227 228
229 1 228 229
230 1 229 230
231 1 231 232
232 1 231 235
233 1 232 233
234 1 233 234
235 1 234 235
236 1 236 237
237 1 236 240
238 1 237 238
239 1 238 239
240 1 239 240
241 1 241 242
242 1 241 245
243 1 242 243
244 1 243 244
245 1 244 245
246 1 246 247
247 1 246 250
248 1 247 248
249 1 248 249
250 1 249 250
251 1 251 252
252 1 251 255
253 1 252 253
254 1 253 254
255 1 254 255
256 1 256 257
257 1 256 260
258 1 257 258
259 1 258 259
260 1 259 260
261 1 261 262
262 1 261 265
263 1 262 263
264 1 263 264
265 1 264 265
266 1 266 267
267 1 266 270
268 1 267 268
269 1 268 269
270 1 269 270
271 1 271 272
272 1 271 275
273 1 272 273
274 1 273 274
275 1 274 275
276 1 276 277
277 1 276 280
278 1 277 278
279 1 278 279
280 1 279 280
281 1 281 282
282 1 281 285
283 1 282 283
284 1 283 284
285 1 284 285
286 1 286 287
287 1 286 290
288 1 287 288
289 1 288 289
290 1 289 290
291 1 291 292
292 1 291 295
293 1 292 293
294 1 293 294
295 1 294 295
296 1 296 297
297 1 296 300
298 1 297 298
299 1 298 299
300 1 299 300
301 1 301 302
302 1 301 305
303 1 302 303
304 1 303 304
305 1 304 305
306 1 306 307
307 1 306 310
308 1 307 308
309 1 308 309
310 1 309 310
311 1 311 312
312 1 311 315
313 1 312 313
314 1 313 314
315 1 314 315
316 1 316 317
317 1 316 320
318 1 317 318
319 1 318 319
320 1 319 320

 Angles

1 1 2 1 5
2 1 1 2 3
3 1 2 3 4
4 1 3 4 5
5 1 1 5 4
6 1 7 6 10
7 1 6 7 8
8 1 7 8 9
9 1 8 9 10
10 1 6 10 9
11 1 12 11 15
12 1 11 12 13
13 1 12 13 14
14 1 13 14 15
15 1 11 15 14
16 1 17 16 20
17 1 16 17 18
18 1 17 18 19
19 1 18 19 20
20 1 16 20 19
21 1 22 21 25
22 1 21 22 23
23 1 22 23 24
24 1 23 24 25
25 1 21 25 24
26 1 27 26 30
27 1 26 27 28
28 1 27 28 29
29 1 28 29 30
30 1 26 30 29
31 1 32 31 35
32 1 31 32 33
33 1 32 33 34
34 1 33 34 35
35 1 31 35 34
36 1 37 36 40
37 1 36 37 38
38 1 37 38 39
39 1 38 39 40
40 1 36 40 39
41 1 42 41 45
42 1 41 42 43
43 1 42 43 44
44 1 43 44 45
45 1 41 45 44
46 1 47 46 50
47 1 46 47 48
48 1 47 48 49
49 1 48 49 50
50 1 46 50 49
51 1 52 51 55
52 1 51 52 53
53 1 52 53 54
54 1 53 54 55
55 1 51 55 54
56 1 57 56 60
57 1 56 57 58
58 1 57 58 59
59 1 58 59 60
60 1 56 60 59
61 1 62 61 65
62 1 61 62 63
63 1 62 63 64
64 1 63 64 65
65 1 61 65 64
66 1 67 66 70
67 1 66 67 68
68 1 67 68 69
69 1 68 69 70
70 1 66 70 69
71 1 72 71 75
72 1 71 72 73
73 1 72 73 74
74 1 73 74 75
75 1 71 75 74
76 1 77 76 80
77 1 76 77 78
78 1 77 78 79
79 1 78 79 80
80 1 76 80 79
81 1 82 81 85
82 1 81 82 83
83 1 82 83 84
84 1 83 84 85
85 1 81 85 84
86 1 87 86 90
87 1 86 87 88
88 1 87 88 89
89 1 88 89 90
90 1 86 90 89
91 1 92 91 95
92 1 91 92 93
93 1 92 93 94
94 1 93 94 95
95 1 91 95 94
96 1 97 96 100
97 1 96 97 98
98 1 97 98 99
99 1 98 99 100
100 1 96 100 99
101 1 102 101 105
102 1 101 102 103
103 1 102 103 104
104 1 103 104 105
105 1 101 105 104
106 1 107 106 110
107 1 106 107 108
108 1 107 108 109
109 1 108 109 110
110 1 106 110 109
111 1 112 111 115
112 1 111 112 113
113 1 112 113 114
114 1 113 114 115
115 1 111 115 114
116 1 117 116 120
117 1 116 117 118
118 1 117 118 119
119 1 118 119 120
120 1 116 120 119
121 1 122 121 125
122 1 121 122 123
123 1 122 123 124
124 1 123 124 125
125 1 121 125 124
126 1 127 126 130
127 1 126 127 128
128 1 127 128 129
129 1 128 129 130
130 1 126 130 129
131 1 132 131 135
132 1 131 132 133
133 1 132 133 134
134 1 133 134 135
135 1 131 135 134
136 1 137 136 140
137 1 136 137 138
138 1 137 138 139
139 1 138 139 140
140 1 136 140 139
141 1 142 141 145
142 1 141 142 143
143 1 142 143 144
144 1 143 144 145
145 1 141 145 144
146 1 147 146 150
147 1 146 147 148
148 1 147 148 149
149 1 148 149 150
150 1 146 150 149
151 1 152 151 155
152 1 151 152 153
153 1 152 153 154
154 1 153 154 155
155 1 151 155 154
156 1 157 156 160
157 1 156 157 158
158 1 157 158 159
159 1 158 159 160
160 1 156 160 159
161 1 162 161 165
162 1 161 162 163
163 1 162 163 164
164 1 163 164 165
165 1 161 165 164
166 1 167 166 170
167 1 166 167 168
168 1 167 168 169
169 1 168 169 170
170 1 166 170 169
171 1 172 171 175
172 1 171 172 173
173 1 172 173 174
174 1 173 174 175
175 1 171 175 174
176 1 177 176 180
177 1 176 177 178
178 1 177 178 179
179 1 178 179 180
180 1 176 180 179
181 1 182 181 185
182 1 181 182 183
183 1 182 183 184
184 1 183 184 185
185 1 181 185 184
186 1 187 186 190
187 1 186 187 188
188 1 187 188 189
189 1 188 189 190
190 1 186 190 189
191 1 192 191 195
192 1 191 192 193
193 1 192 193 194
194 1 193 194 195
195 1 191 195 194
196 1 197 196 200
197 1 196 197 198
198 1 197 198 199
199 1 198 199 200
200 1 196 200 199
201 1 202 201 205
202 1 201 202 203
203 1 202 203 204
204 1 203 204 205
205 1 201 205 204
206 1 207 206 210
207 1 206 207 208
208 1 207 208 209
209 1 208 209 210
210 1 206 210 209
211 1 212 211 215
212 1 211 212 213
213 1 212 213 214
214 1 213 214 215
215 1 211 215 214
216 1 217 216 220
217 1 216 217 218
218 1 217 218 219
219 1 218 219 220
220 1 216 220 219
221 1 222 221 225
222 1 221 222 223
223 1 222 223 224
224 1 223 224 225
225 1 221 225 224
226 1 227 226 230
227 1 226 227 228
228 1 227 228 229
229 1 228 229 230
230 1 226 230 229
231 1 232 231 235
232 1 231 232 233
233 1 232 233 234
234 1 233 234 235
235 1 231 235 234
236 1 237 236 240
237 1 236 237 238
238 1 237 238 239
239 1 238 239 240
240 1 236 240 239
241 1 242 241 245
242 1 241 242 243
243 1 242 243 244
244 1 243 244 245
245 1 241 245 244
246 1 247 246 250
247 1 246 247 248
248 1 247 248 249
249 1 248 249 250
250 1 246 250 249
251 1 252 251 255
252 1 251 252 253
253 1 252 253 254
254 1 253 254 255
255 1 251 255 254
256 1 257 256 260
257 1 256 257 258
258 1 257 258 259
259 1 258 259 260
260 1 256 260 259
261 1 262 261 265
262 1 261 262 263
263 1 262 263 264
264 1 263 264 265
265 1 261 265 264
266 1 267 266 270
267 1 266 267 268
268 1 267 268 269
269 1 268 269 270
270 1 266 270 269
271 1 272 271 275
272 1 271 272 273
273 1 272 273 274
274 1 273 274 275
275 1 271 275 274
276 1 277 276 280
277 1 276 277 278
278 1 277 278 279
279 1 278 279 280
280 1 276 280 279
281 1 282 281 285
282 1 281 282 283
283 1 282 283 284
284 1 283 284 285
285 1 281 285 284
286 1 287 286 290
287 1 286 287 288
288 1 287 288 289
289 1 288 289 290
290 1 286 290 289
291 1 292 291 295
292 1 291 292 293
293 1 292 293 294
294 1 293 294 295
295 1 291 295 294
296 1 297 296 300
297 1 296 297 298
298 1 297 298 299
299 1 298 299 300
300 1 296 300 299
301 1 302 301 305
302 1 301 302 303
303 1 302 303 304
304 1 303 304 305
305 1 301 305 304
306 1 307 306 310
307 1 306 307 308
308 1 307 308 309
309 1 308 309 310
310 1 306 310 309
311 1 312 311 315
312 1 311 312 313
313 1 312 313 314
314 1 313 314 315
315 1 311 315 314
316 1 317 316 320
317 1 316 317 318
318 1 317 318 319
319 1 318 319 320
320 1 316 320 319

 Dihedrals

1 1 5 1 2 3
2 1 2 1 5 4
3 1 1 2 3 4
4 1 2 3 4 5
5 1 3 4 5 1
6 1 10 6 7 8
7 1 7 6 10 9
8 1 6 7 8 9
9 1 7 8 9 10
10 1 8 9 10 6
11 1 15 11 12 13
12 1 12 11 15 14
13 1 11 12 13 14
14 1 12 13 14 15
15 1 13 14 15 11
16 1 20 16 17 18
17 1 17 16 20 19
18 1 16 17 18 19
19 1 17 18 19 20
20 1 18 19 20 16
21 1 25 21 22 23
22 1 22 21 25 24
23 1 21 22 23 24
24 1 22 23 24 25
25 1 23 24 25 21
26 1 30 26 27 28
27 1 27 26 30 29
28 1 26 27 28 29
29 1 27 28 29 30
30 1 28 29 30 26
31 1 35 31 32 33
32 1 32 31 35 34
33 1 31 32 33 34
34 1 32 33 34 35
35 1 33 34 35 31
36 1 40 36 37 38
37 1 37 36 40 39
38 1 36 37 38 39
39 1 37 38 39 40
40 1 38 39 40 36
41 1 45 41 42 43
42 1 42 41 45 44
43 1 41 42 43 44
44 1 42 43 44 45
45 1 43 44 45 41
46 1 50 46 47 48
47 1 47 46 50 49
48 1 46 47 48 49
49 1 47 48 49 50
50 1 48 49 50 46
51 1 55 51 52 53
52 1 52 51 55 54
53 1 51 52 53 54
54 1 52 53 54 55
55 1 53 54 55 51
56 1 60 56 57 58
57 1 57 56 60 59
58 1 56 57 58 59
59 1 57 58 59 60
60 1 58 59 60 56
61 1 65 61 62 63
62 1 62 61 65 64
63 1 61 62 63 64
64 1 62 63 64 65
65 1 63 64 65 61
66 1 70 66 67 68
67 1 67 66 70 69
68 1 66 67 68 69
69 1 67 68 69 70
70 1 68 69 70 66
71 1 75 71 72 73
72 1 72 71 75 74
73 1 71 72 73 74
74 1 72 73 74 75
75 1 73 74 75 71
76 1 80 76 77 78
77 1 77 76 80 79
78 1 76 77 78 79
79 1 77 78 79 80
80 1 78 79 80 76
81 1 85 81 82 83
82 1 82 81 85 84
83 1 81 82 83 84
84 1 82 83 84 85
85 1 83 84 85 81
86 1 90 86 87 88
87 1 87 86 90 89
88 1 86 87 88 89
89 1 87 88 89 90
90 1 88 89 90 86
91 1 95 91 92 93
92 1 92 91 95 94
93 1 91 92 93 94
94 1 92 93 94 95
95 1 93 94 95 91
96 1 100 96 97 98
97 1 97 96 100 99
98 1 96 97 98 99
99 1 97 98 99 100
100 1 98 99 100 96
101 1 105 101 102 103
102 1 102 101 105 104
103 1 101 102 103 104
104 1 102 103 104 105
105 1 103 104 105 101
106 1 110 106 107 108
107 1 107 106 110 109