LAMMPS data file. CGCMM style. atom_style full generated by VMD/TopoTools v1.7 on Tue Aug 29 16:36:20 EDT 2017
 192 atoms
 128 bonds
 64 angles
 0 dihedrals
 0 impropers
 2 atom types
 1 bond types
 1 angle types
 0 dihedral types
 0 improper types
 -198.459999 201.540001  xlo xhi
 -200.000000 200.000000  ylo yhi
 -200.000000 200.000000  zlo zhi

# Pair Coeffs
#
# 1  CH2
# 2  CH3

# Bond Coeffs
#
# 1  CH2-CH3

# Angle Coeffs
#
# 1  CH3-CH2-CH3

 Masses

 1 14.026580 # CH2
 2 15.034520 # CH3

 Atoms # full

1 1 2 0.000000 -150.000000 -150.000000 -150.000000 # CH3 
2 1 1 0.000000 -148.460007 -150.000000 -150.000000 # CH2 
3 1 2 0.000000 -146.919998 -150.000000 -150.000000 # CH3 
4 1 2 0.000000 -150.000000 -150.000000 -50.000000 # CH3 
5 1 1 0.000000 -148.460007 -150.000000 -50.000000 # CH2 
6 1 2 0.000000 -146.919998 -150.000000 -50.000000 # CH3 
7 1 2 0.000000 -150.000000 -150.000000 50.000000 # CH3 
8 1 1 0.000000 -148.460007 -150.000000 50.000000 # CH2 
9 1 2 0.000000 -146.919998 -150.000000 50.000000 # CH3 
10 1 2 0.000000 -150.000000 -150.000000 150.000000 # CH3 
11 1 1 0.000000 -148.460007 -150.000000 150.000000 # CH2 
12 1 2 0.000000 -146.919998 -150.000000 150.000000 # CH3 
13 1 2 0.000000 -150.000000 -50.000000 -150.000000 # CH3 
14 1 1 0.000000 -148.460007 -50.000000 -150.000000 # CH2 
15 1 2 0.000000 -146.919998 -50.000000 -150.000000 # CH3 
16 1 2 0.000000 -150.000000 -50.000000 -50.000000 # CH3 
17 1 1 0.000000 -148.460007 -50.000000 -50.000000 # CH2 
18 1 2 0.000000 -146.919998 -50.000000 -50.000000 # CH3 
19 1 2 0.000000 -150.000000 -50.000000 50.000000 # CH3 
20 1 1 0.000000 -148.460007 -50.000000 50.000000 # CH2 
21 1 2 0.000000 -146.919998 -50.000000 50.000000 # CH3 
22 1 2 0.000000 -150.000000 -50.000000 150.000000 # CH3 
23 1 1 0.000000 -148.460007 -50.000000 150.000000 # CH2 
24 1 2 0.000000 -146.919998 -50.000000 150.000000 # CH3 
25 1 2 0.000000 -150.000000 50.000000 -150.000000 # CH3 
26 1 1 0.000000 -148.460007 50.000000 -150.000000 # CH2 
27 1 2 0.000000 -146.919998 50.000000 -150.000000 # CH3 
28 1 2 0.000000 -150.000000 50.000000 -50.000000 # CH3 
29 1 1 0.000000 -148.460007 50.000000 -50.000000 # CH2 
30 1 2 0.000000 -146.919998 50.000000 -50.000000 # CH3 
31 1 2 0.000000 -150.000000 50.000000 50.000000 # CH3 
32 1 1 0.000000 -148.460007 50.000000 50.000000 # CH2 
33 1 2 0.000000 -146.919998 50.000000 50.000000 # CH3 
34 1 2 0.000000 -150.000000 50.000000 150.000000 # CH3 
35 1 1 0.000000 -148.460007 50.000000 150.000000 # CH2 
36 1 2 0.000000 -146.919998 50.000000 150.000000 # CH3 
37 1 2 0.000000 -150.000000 150.000000 -150.000000 # CH3 
38 1 1 0.000000 -148.460007 150.000000 -150.000000 # CH2 
39 1 2 0.000000 -146.919998 150.000000 -150.000000 # CH3 
40 1 2 0.000000 -150.000000 150.000000 -50.000000 # CH3 
41 1 1 0.000000 -148.460007 150.000000 -50.000000 # CH2 
42 1 2 0.000000 -146.919998 150.000000 -50.000000 # CH3 
43 1 2 0.000000 -150.000000 150.000000 50.000000 # CH3 
44 1 1 0.000000 -148.460007 150.000000 50.000000 # CH2 
45 1 2 0.000000 -146.919998 150.000000 50.000000 # CH3 
46 1 2 0.000000 -150.000000 150.000000 150.000000 # CH3 
47 1 1 0.000000 -148.460007 150.000000 150.000000 # CH2 
48 1 2 0.000000 -146.919998 150.000000 150.000000 # CH3 
49 1 2 0.000000 -50.000000 -150.000000 -150.000000 # CH3 
50 1 1 0.000000 -48.459999 -150.000000 -150.000000 # CH2 
51 1 2 0.000000 -46.919998 -150.000000 -150.000000 # CH3 
52 1 2 0.000000 -50.000000 -150.000000 -50.000000 # CH3 
53 1 1 0.000000 -48.459999 -150.000000 -50.000000 # CH2 
54 1 2 0.000000 -46.919998 -150.000000 -50.000000 # CH3 
55 1 2 0.000000 -50.000000 -150.000000 50.000000 # CH3 
56 1 1 0.000000 -48.459999 -150.000000 50.000000 # CH2 
57 1 2 0.000000 -46.919998 -150.000000 50.000000 # CH3 
58 1 2 0.000000 -50.000000 -150.000000 150.000000 # CH3 
59 1 1 0.000000 -48.459999 -150.000000 150.000000 # CH2 
60 1 2 0.000000 -46.919998 -150.000000 150.000000 # CH3 
61 1 2 0.000000 -50.000000 -50.000000 -150.000000 # CH3 
62 1 1 0.000000 -48.459999 -50.000000 -150.000000 # CH2 
63 1 2 0.000000 -46.919998 -50.000000 -150.000000 # CH3 
64 1 2 0.000000 -50.000000 -50.000000 -50.000000 # CH3 
65 1 1 0.000000 -48.459999 -50.000000 -50.000000 # CH2 
66 1 2 0.000000 -46.919998 -50.000000 -50.000000 # CH3 
67 1 2 0.000000 -50.000000 -50.000000 50.000000 # CH3 
68 1 1 0.000000 -48.459999 -50.000000 50.000000 # CH2 
69 1 2 0.000000 -46.919998 -50.000000 50.000000 # CH3 
70 1 2 0.000000 -50.000000 -50.000000 150.000000 # CH3 
71 1 1 0.000000 -48.459999 -50.000000 150.000000 # CH2 
72 1 2 0.000000 -46.919998 -50.000000 150.000000 # CH3 
73 1 2 0.000000 -50.000000 50.000000 -150.000000 # CH3 
74 1 1 0.000000 -48.459999 50.000000 -150.000000 # CH2 
75 1 2 0.000000 -46.919998 50.000000 -150.000000 # CH3 
76 1 2 0.000000 -50.000000 50.000000 -50.000000 # CH3 
77 1 1 0.000000 -48.459999 50.000000 -50.000000 # CH2 
78 1 2 0.000000 -46.919998 50.000000 -50.000000 # CH3 
79 1 2 0.000000 -50.000000 50.000000 50.000000 # CH3 
80 1 1 0.000000 -48.459999 50.000000 50.000000 # CH2 
81 1 2 0.000000 -46.919998 50.000000 50.000000 # CH3 
82 1 2 0.000000 -50.000000 50.000000 150.000000 # CH3 
83 1 1 0.000000 -48.459999 50.000000 150.000000 # CH2 
84 1 2 0.000000 -46.919998 50.000000 150.000000 # CH3 
85 1 2 0.000000 -50.000000 150.000000 -150.000000 # CH3 
86 1 1 0.000000 -48.459999 150.000000 -150.000000 # CH2 
87 1 2 0.000000 -46.919998 150.000000 -150.000000 # CH3 
88 1 2 0.000000 -50.000000 150.000000 -50.000000 # CH3 
89 1 1 0.000000 -48.459999 150.000000 -50.000000 # CH2 
90 1 2 0.000000 -46.919998 150.000000 -50.000000 # CH3 
91 1 2 0.000000 -50.000000 150.000000 50.000000 # CH3 
92 1 1 0.000000 -48.459999 150.000000 50.000000 # CH2 
93 1 2 0.000000 -46.919998 150.000000 50.000000 # CH3 
94 1 2 0.000000 -50.000000 150.000000 150.000000 # CH3 
95 1 1 0.000000 -48.459999 150.000000 150.000000 # CH2 
96 1 2 0.000000 -46.919998 150.000000 150.000000 # CH3 
97 1 2 0.000000 50.000000 -150.000000 -150.000000 # CH3 
98 1 1 0.000000 51.540001 -150.000000 -150.000000 # CH2 
99 1 2 0.000000 53.080002 -150.000000 -150.000000 # CH3 
100 1 2 0.000000 50.000000 -150.000000 -50.000000 # CH3 
101 1 1 0.000000 51.540001 -150.000000 -50.000000 # CH2 
102 1 2 0.000000 53.080002 -150.000000 -50.000000 # CH3 
103 1 2 0.000000 50.000000 -150.000000 50.000000 # CH3 
104 1 1 0.000000 51.540001 -150.000000 50.000000 # CH2 
105 1 2 0.000000 53.080002 -150.000000 50.000000 # CH3 
106 1 2 0.000000 50.000000 -150.000000 150.000000 # CH3 
107 1 1 0.000000 51.540001 -150.000000 150.000000 # CH2 
108 1 2 0.000000 53.080002 -150.000000 150.000000 # CH3 
109 1 2 0.000000 50.000000 -50.000000 -150.000000 # CH3 
110 1 1 0.000000 51.540001 -50.000000 -150.000000 # CH2 
111 1 2 0.000000 53.080002 -50.000000 -150.000000 # CH3 
112 1 2 0.000000 50.000000 -50.000000 -50.000000 # CH3 
113 1 1 0.000000 51.540001 -50.000000 -50.000000 # CH2 
114 1 2 0.000000 53.080002 -50.000000 -50.000000 # CH3 
115 1 2 0.000000 50.000000 -50.000000 50.000000 # CH3 
116 1 1 0.000000 51.540001 -50.000000 50.000000 # CH2 
117 1 2 0.000000 53.080002 -50.000000 50.000000 # CH3 
118 1 2 0.000000 50.000000 -50.000000 150.000000 # CH3 
119 1 1 0.000000 51.540001 -50.000000 150.000000 # CH2 
120 1 2 0.000000 53.080002 -50.000000 150.000000 # CH3 
121 1 2 0.000000 50.000000 50.000000 -150.000000 # CH3 
122 1 1 0.000000 51.540001 50.000000 -150.000000 # CH2 
123 1 2 0.000000 53.080002 50.000000 -150.000000 # CH3 
124 1 2 0.000000 50.000000 50.000000 -50.000000 # CH3 
125 1 1 0.000000 51.540001 50.000000 -50.000000 # CH2 
126 1 2 0.000000 53.080002 50.000000 -50.000000 # CH3 
127 1 2 0.000000 50.000000 50.000000 50.000000 # CH3 
128 1 1 0.000000 51.540001 50.000000 50.000000 # CH2 
129 1 2 0.000000 53.080002 50.000000 50.000000 # CH3 
130 1 2 0.000000 50.000000 50.000000 150.000000 # CH3 
131 1 1 0.000000 51.540001 50.000000 150.000000 # CH2 
132 1 2 0.000000 53.080002 50.000000 150.000000 # CH3 
133 1 2 0.000000 50.000000 150.000000 -150.000000 # CH3 
134 1 1 0.000000 51.540001 150.000000 -150.000000 # CH2 
135 1 2 0.000000 53.080002 150.000000 -150.000000 # CH3 
136 1 2 0.000000 50.000000 150.000000 -50.000000 # CH3 
137 1 1 0.000000 51.540001 150.000000 -50.000000 # CH2 
138 1 2 0.000000 53.080002 150.000000 -50.000000 # CH3 
139 1 2 0.000000 50.000000 150.000000 50.000000 # CH3 
140 1 1 0.000000 51.540001 150.000000 50.000000 # CH2 
141 1 2 0.000000 53.080002 150.000000 50.000000 # CH3 
142 1 2 0.000000 50.000000 150.000000 150.000000 # CH3 
143 1 1 0.000000 51.540001 150.000000 150.000000 # CH2 
144 1 2 0.000000 53.080002 150.000000 150.000000 # CH3 
145 1 2 0.000000 150.000000 -150.000000 -150.000000 # CH3 
146 1 1 0.000000 151.539993 -150.000000 -150.000000 # CH2 
147 1 2 0.000000 153.080002 -150.000000 -150.000000 # CH3 
148 1 2 0.000000 150.000000 -150.000000 -50.000000 # CH3 
149 1 1 0.000000 151.539993 -150.000000 -50.000000 # CH2 
150 1 2 0.000000 153.080002 -150.000000 -50.000000 # CH3 
151 1 2 0.000000 150.000000 -150.000000 50.000000 # CH3 
152 1 1 0.000000 151.539993 -150.000000 50.000000 # CH2 
153 1 2 0.000000 153.080002 -150.000000 50.000000 # CH3 
154 1 2 0.000000 150.000000 -150.000000 150.000000 # CH3 
155 1 1 0.000000 151.539993 -150.000000 150.000000 # CH2 
156 1 2 0.000000 153.080002 -150.000000 150.000000 # CH3 
157 1 2 0.000000 150.000000 -50.000000 -150.000000 # CH3 
158 1 1 0.000000 151.539993 -50.000000 -150.000000 # CH2 
159 1 2 0.000000 153.080002 -50.000000 -150.000000 # CH3 
160 1 2 0.000000 150.000000 -50.000000 -50.000000 # CH3 
161 1 1 0.000000 151.539993 -50.000000 -50.000000 # CH2 
162 1 2 0.000000 153.080002 -50.000000 -50.000000 # CH3 
163 1 2 0.000000 150.000000 -50.000000 50.000000 # CH3 
164 1 1 0.000000 151.539993 -50.000000 50.000000 # CH2 
165 1 2 0.000000 153.080002 -50.000000 50.000000 # CH3 
166 1 2 0.000000 150.000000 -50.000000 150.000000 # CH3 
167 1 1 0.000000 151.539993 -50.000000 150.000000 # CH2 
168 1 2 0.000000 153.080002 -50.000000 150.000000 # CH3 
169 1 2 0.000000 150.000000 50.000000 -150.000000 # CH3 
170 1 1 0.000000 151.539993 50.000000 -150.000000 # CH2 
171 1 2 0.000000 153.080002 50.000000 -150.000000 # CH3 
172 1 2 0.000000 150.000000 50.000000 -50.000000 # CH3 
173 1 1 0.000000 151.539993 50.000000 -50.000000 # CH2 
174 1 2 0.000000 153.080002 50.000000 -50.000000 # CH3 
175 1 2 0.000000 150.000000 50.000000 50.000000 # CH3 
176 1 1 0.000000 151.539993 50.000000 50.000000 # CH2 
177 1 2 0.000000 153.080002 50.000000 50.000000 # CH3 
178 1 2 0.000000 150.000000 50.000000 150.000000 # CH3 
179 1 1 0.000000 151.539993 50.000000 150.000000 # CH2 
180 1 2 0.000000 153.080002 50.000000 150.000000 # CH3 
181 1 2 0.000000 150.000000 150.000000 -150.000000 # CH3 
182 1 1 0.000000 151.539993 150.000000 -150.000000 # CH2 
183 1 2 0.000000 153.080002 150.000000 -150.000000 # CH3 
184 1 2 0.000000 150.000000 150.000000 -50.000000 # CH3 
185 1 1 0.000000 151.539993 150.000000 -50.000000 # CH2 
186 1 2 0.000000 153.080002 150.000000 -50.000000 # CH3 
187 1 2 0.000000 150.000000 150.000000 50.000000 # CH3 
188 1 1 0.000000 151.539993 150.000000 50.000000 # CH2 
189 1 2 0.000000 153.080002 150.000000 50.000000 # CH3 
190 1 2 0.000000 150.000000 150.000000 150.000000 # CH3 
191 1 1 0.000000 151.539993 150.000000 150.000000 # CH2 
192 1 2 0.000000 153.080002 150.000000 150.000000 # CH3 

 Bonds

1 1 1 2
2 1 2 3
3 1 4 5
4 1 5 6
5 1 7 8
6 1 8 9
7 1 10 11
8 1 11 12
9 1 13 14
10 1 14 15
11 1 16 17
12 1 17 18
13 1 19 20
14 1 20 21
15 1 22 23
16 1 23 24
17 1 25 26
18 1 26 27
19 1 28 29
20 1 29 30
21 1 31 32
22 1 32 33
23 1 34 35
24 1 35 36
25 1 37 38
26 1 38 39
27 1 40 41
28 1 41 42
29 1 43 44
30 1 44 45
31 1 46 47
32 1 47 48
33 1 49 50
34 1 50 51
35 1 52 53
36 1 53 54
37 1 55 56
38 1 56 57
39 1 58 59
40 1 59 60
41 1 61 62
42 1 62 63
43 1 64 65
44 1 65 66
45 1 67 68
46 1 68 69
47 1 70 71
48 1 71 72
49 1 73 74
50 1 74 75
51 1 76 77
52 1 77 78
53 1 79 80
54 1 80 81
55 1 82 83
56 1 83 84
57 1 85 86
58 1 86 87
59 1 88 89
60 1 89 90
61 1 91 92
62 1 92 93
63 1 94 95
64 1 95 96
65 1 97 98
66 1 98 99
67 1 100 101
68 1 101 102
69 1 103 104
70 1 104 105
71 1 106 107
72 1 107 108
73 1 109 110
74 1 110 111
75 1 112 113
76 1 113 114
77 1 115 116
78 1 116 117
79 1 118 119
80 1 119 120
81 1 121 122
82 1 122 123
83 1 124 125
84 1 125 126
85 1 127 128
86 1 128 129
87 1 130 131
88 1 131 132
89 1 133 134
90 1 134 135
91 1 136 137
92 1 137 138
93 1 139 140
94 1 140 141
95 1 142 143
96 1 143 144
97 1 145 146
98 1 146 147
99 1 148 149
100 1 149 150
101 1 151 152
102 1 152 153
103 1 154 155
104 1 155 156
105 1 157 158
106 1 158 159
107 1 160 161
108 1 161 162
109 1 163 164
110 1 164 165
111 1 166 167
112 1 167 168
113 1 169 170
114 1 170 171
115 1 172 173
116 1 173 174
117 1 175 176
118 1 176 177
119 1 178 179
120 1 179 180
121 1 181 182
122 1 182 183
123 1 184 185
124 1 185 186
125 1 187 188
126 1 188 189
127 1 190 191
128 1 191 192

 Angles

1 1 1 2 3
2 1 4 5 6
3 1 7 8 9
4 1 10 11 12
5 1 13 14 15
6 1 16 17 18
7 1 19 20 21
8 1 22 23 24
9 1 25 26 27
10 1 28 29 30
11 1 31 32 33
12 1 34 35 36
13 1 37 38 39
14 1 40 41 42
15 1 43 44 45
16 1 46 47 48
17 1 49 50 51
18 1 52 53 54
19 1 55 56 57
20 1 58 59 60
21 1 61 62 63
22 1 64 65 66
23 1 67 68 69
24 1 70 71 72
25 1 73 74 75
26 1 76 77 78
27 1 79 80 81
28 1 82 83 84
29 1 85 86 87
30 1 88 89 90
31 1 91 92 93
32 1 94 95 96
33 1 97 98 99
34 1 100 101 102
35 1 103 104 105
36 1 106 107 108
37 1 109 110 111
38 1 112 113 114
39 1 115 116 117
40 1 118 119 120
41 1 121 122 123
42 1 124 125 126
43 1 127 128 129
44 1 130 131 132
45 1 133 134 135
46 1 136 137 138
47 1 139 140 141
48 1 142 143 144
49 1 145 146 147
50 1 148 149 150
51 1 151 152 153
52 1 154 155 156
53 1 157 158 159
54 1 160 161 162
55 1 163 164 165
56 1 166 167 168
57 1 169 170 171
58 1 172 173 174
59 1 175 176 177
60 1 178 179 180
61 1 181 182 183
62 1 184 185 186
63 1 187 188 189
64 1 190 191 192

