LAMMPS data file. CGCMM style. atom_style full generated by VMD/TopoTools v1.7 on Tue Aug 29 15:52:34 EDT 2017
 128 atoms
 64 bonds
 0 angles
 0 dihedrals
 0 impropers
 1 atom types
 1 bond types
 0 angle types
 0 dihedral types
 0 improper types
 -199.230003 200.769997  xlo xhi
 -200.000000 200.000000  ylo yhi
 -200.000000 200.000000  zlo zhi

# Pair Coeffs
#
# 1  CH3

# Bond Coeffs
#
# 1  CH3-CH3

 Masses

 1 15.034520 # CH3

 Atoms # full

1 1 1 0.000000 -150.000000 -150.000000 -150.000000 # CH3 
2 1 1 0.000000 -148.460007 -150.000000 -150.000000 # CH3 
3 1 1 0.000000 -150.000000 -150.000000 -50.000000 # CH3 
4 1 1 0.000000 -148.460007 -150.000000 -50.000000 # CH3 
5 1 1 0.000000 -150.000000 -150.000000 50.000000 # CH3 
6 1 1 0.000000 -148.460007 -150.000000 50.000000 # CH3 
7 1 1 0.000000 -150.000000 -150.000000 150.000000 # CH3 
8 1 1 0.000000 -148.460007 -150.000000 150.000000 # CH3 
9 1 1 0.000000 -150.000000 -50.000000 -150.000000 # CH3 
10 1 1 0.000000 -148.460007 -50.000000 -150.000000 # CH3 
11 1 1 0.000000 -150.000000 -50.000000 -50.000000 # CH3 
12 1 1 0.000000 -148.460007 -50.000000 -50.000000 # CH3 
13 1 1 0.000000 -150.000000 -50.000000 50.000000 # CH3 
14 1 1 0.000000 -148.460007 -50.000000 50.000000 # CH3 
15 1 1 0.000000 -150.000000 -50.000000 150.000000 # CH3 
16 1 1 0.000000 -148.460007 -50.000000 150.000000 # CH3 
17 1 1 0.000000 -150.000000 50.000000 -150.000000 # CH3 
18 1 1 0.000000 -148.460007 50.000000 -150.000000 # CH3 
19 1 1 0.000000 -150.000000 50.000000 -50.000000 # CH3 
20 1 1 0.000000 -148.460007 50.000000 -50.000000 # CH3 
21 1 1 0.000000 -150.000000 50.000000 50.000000 # CH3 
22 1 1 0.000000 -148.460007 50.000000 50.000000 # CH3 
23 1 1 0.000000 -150.000000 50.000000 150.000000 # CH3 
24 1 1 0.000000 -148.460007 50.000000 150.000000 # CH3 
25 1 1 0.000000 -150.000000 150.000000 -150.000000 # CH3 
26 1 1 0.000000 -148.460007 150.000000 -150.000000 # CH3 
27 1 1 0.000000 -150.000000 150.000000 -50.000000 # CH3 
28 1 1 0.000000 -148.460007 150.000000 -50.000000 # CH3 
29 1 1 0.000000 -150.000000 150.000000 50.000000 # CH3 
30 1 1 0.000000 -148.460007 150.000000 50.000000 # CH3 
31 1 1 0.000000 -150.000000 150.000000 150.000000 # CH3 
32 1 1 0.000000 -148.460007 150.000000 150.000000 # CH3 
33 1 1 0.000000 -50.000000 -150.000000 -150.000000 # CH3 
34 1 1 0.000000 -48.459999 -150.000000 -150.000000 # CH3 
35 1 1 0.000000 -50.000000 -150.000000 -50.000000 # CH3 
36 1 1 0.000000 -48.459999 -150.000000 -50.000000 # CH3 
37 1 1 0.000000 -50.000000 -150.000000 50.000000 # CH3 
38 1 1 0.000000 -48.459999 -150.000000 50.000000 # CH3 
39 1 1 0.000000 -50.000000 -150.000000 150.000000 # CH3 
40 1 1 0.000000 -48.459999 -150.000000 150.000000 # CH3 
41 1 1 0.000000 -50.000000 -50.000000 -150.000000 # CH3 
42 1 1 0.000000 -48.459999 -50.000000 -150.000000 # CH3 
43 1 1 0.000000 -50.000000 -50.000000 -50.000000 # CH3 
44 1 1 0.000000 -48.459999 -50.000000 -50.000000 # CH3 
45 1 1 0.000000 -50.000000 -50.000000 50.000000 # CH3 
46 1 1 0.000000 -48.459999 -50.000000 50.000000 # CH3 
47 1 1 0.000000 -50.000000 -50.000000 150.000000 # CH3 
48 1 1 0.000000 -48.459999 -50.000000 150.000000 # CH3 
49 1 1 0.000000 -50.000000 50.000000 -150.000000 # CH3 
50 1 1 0.000000 -48.459999 50.000000 -150.000000 # CH3 
51 1 1 0.000000 -50.000000 50.000000 -50.000000 # CH3 
52 1 1 0.000000 -48.459999 50.000000 -50.000000 # CH3 
53 1 1 0.000000 -50.000000 50.000000 50.000000 # CH3 
54 1 1 0.000000 -48.459999 50.000000 50.000000 # CH3 
55 1 1 0.000000 -50.000000 50.000000 150.000000 # CH3 
56 1 1 0.000000 -48.459999 50.000000 150.000000 # CH3 
57 1 1 0.000000 -50.000000 150.000000 -150.000000 # CH3 
58 1 1 0.000000 -48.459999 150.000000 -150.000000 # CH3 
59 1 1 0.000000 -50.000000 150.000000 -50.000000 # CH3 
60 1 1 0.000000 -48.459999 150.000000 -50.000000 # CH3 
61 1 1 0.000000 -50.000000 150.000000 50.000000 # CH3 
62 1 1 0.000000 -48.459999 150.000000 50.000000 # CH3 
63 1 1 0.000000 -50.000000 150.000000 150.000000 # CH3 
64 1 1 0.000000 -48.459999 150.000000 150.000000 # CH3 
65 1 1 0.000000 50.000000 -150.000000 -150.000000 # CH3 
66 1 1 0.000000 51.540001 -150.000000 -150.000000 # CH3 
67 1 1 0.000000 50.000000 -150.000000 -50.000000 # CH3 
68 1 1 0.000000 51.540001 -150.000000 -50.000000 # CH3 
69 1 1 0.000000 50.000000 -150.000000 50.000000 # CH3 
70 1 1 0.000000 51.540001 -150.000000 50.000000 # CH3 
71 1 1 0.000000 50.000000 -150.000000 150.000000 # CH3 
72 1 1 0.000000 51.540001 -150.000000 150.000000 # CH3 
73 1 1 0.000000 50.000000 -50.000000 -150.000000 # CH3 
74 1 1 0.000000 51.540001 -50.000000 -150.000000 # CH3 
75 1 1 0.000000 50.000000 -50.000000 -50.000000 # CH3 
76 1 1 0.000000 51.540001 -50.000000 -50.000000 # CH3 
77 1 1 0.000000 50.000000 -50.000000 50.000000 # CH3 
78 1 1 0.000000 51.540001 -50.000000 50.000000 # CH3 
79 1 1 0.000000 50.000000 -50.000000 150.000000 # CH3 
80 1 1 0.000000 51.540001 -50.000000 150.000000 # CH3 
81 1 1 0.000000 50.000000 50.000000 -150.000000 # CH3 
82 1 1 0.000000 51.540001 50.000000 -150.000000 # CH3 
83 1 1 0.000000 50.000000 50.000000 -50.000000 # CH3 
84 1 1 0.000000 51.540001 50.000000 -50.000000 # CH3 
85 1 1 0.000000 50.000000 50.000000 50.000000 # CH3 
86 1 1 0.000000 51.540001 50.000000 50.000000 # CH3 
87 1 1 0.000000 50.000000 50.000000 150.000000 # CH3 
88 1 1 0.000000 51.540001 50.000000 150.000000 # CH3 
89 1 1 0.000000 50.000000 150.000000 -150.000000 # CH3 
90 1 1 0.000000 51.540001 150.000000 -150.000000 # CH3 
91 1 1 0.000000 50.000000 150.000000 -50.000000 # CH3 
92 1 1 0.000000 51.540001 150.000000 -50.000000 # CH3 
93 1 1 0.000000 50.000000 150.000000 50.000000 # CH3 
94 1 1 0.000000 51.540001 150.000000 50.000000 # CH3 
95 1 1 0.000000 50.000000 150.000000 150.000000 # CH3 
96 1 1 0.000000 51.540001 150.000000 150.000000 # CH3 
97 1 1 0.000000 150.000000 -150.000000 -150.000000 # CH3 
98 1 1 0.000000 151.539993 -150.000000 -150.000000 # CH3 
99 1 1 0.000000 150.000000 -150.000000 -50.000000 # CH3 
100 1 1 0.000000 151.539993 -150.000000 -50.000000 # CH3 
101 1 1 0.000000 150.000000 -150.000000 50.000000 # CH3 
102 1 1 0.000000 151.539993 -150.000000 50.000000 # CH3 
103 1 1 0.000000 150.000000 -150.000000 150.000000 # CH3 
104 1 1 0.000000 151.539993 -150.000000 150.000000 # CH3 
105 1 1 0.000000 150.000000 -50.000000 -150.000000 # CH3 
106 1 1 0.000000 151.539993 -50.000000 -150.000000 # CH3 
107 1 1 0.000000 150.000000 -50.000000 -50.000000 # CH3 
108 1 1 0.000000 151.539993 -50.000000 -50.000000 # CH3 
109 1 1 0.000000 150.000000 -50.000000 50.000000 # CH3 
110 1 1 0.000000 151.539993 -50.000000 50.000000 # CH3 
111 1 1 0.000000 150.000000 -50.000000 150.000000 # CH3 
112 1 1 0.000000 151.539993 -50.000000 150.000000 # CH3 
113 1 1 0.000000 150.000000 50.000000 -150.000000 # CH3 
114 1 1 0.000000 151.539993 50.000000 -150.000000 # CH3 
115 1 1 0.000000 150.000000 50.000000 -50.000000 # CH3 
116 1 1 0.000000 151.539993 50.000000 -50.000000 # CH3 
117 1 1 0.000000 150.000000 50.000000 50.000000 # CH3 
118 1 1 0.000000 151.539993 50.000000 50.000000 # CH3 
119 1 1 0.000000 150.000000 50.000000 150.000000 # CH3 
120 1 1 0.000000 151.539993 50.000000 150.000000 # CH3 
121 1 1 0.000000 150.000000 150.000000 -150.000000 # CH3 
122 1 1 0.000000 151.539993 150.000000 -150.000000 # CH3 
123 1 1 0.000000 150.000000 150.000000 -50.000000 # CH3 
124 1 1 0.000000 151.539993 150.000000 -50.000000 # CH3 
125 1 1 0.000000 150.000000 150.000000 50.000000 # CH3 
126 1 1 0.000000 151.539993 150.000000 50.000000 # CH3 
127 1 1 0.000000 150.000000 150.000000 150.000000 # CH3 
128 1 1 0.000000 151.539993 150.000000 150.000000 # CH3 

 Bonds

1 1 1 2
2 1 3 4
3 1 5 6
4 1 7 8
5 1 9 10
6 1 11 12
7 1 13 14
8 1 15 16
9 1 17 18
10 1 19 20
11 1 21 22
12 1 23 24
13 1 25 26
14 1 27 28
15 1 29 30
16 1 31 32
17 1 33 34
18 1 35 36
19 1 37 38
20 1 39 40
21 1 41 42
22 1 43 44
23 1 45 46
24 1 47 48
25 1 49 50
26 1 51 52
27 1 53 54
28 1 55 56
29 1 57 58
30 1 59 60
31 1 61 62
32 1 63 64
33 1 65 66
34 1 67 68
35 1 69 70
36 1 71 72
37 1 73 74
38 1 75 76
39 1 77 78
40 1 79 80
41 1 81 82
42 1 83 84
43 1 85 86
44 1 87 88
45 1 89 90
46 1 91 92
47 1 93 94
48 1 95 96
49 1 97 98
50 1 99 100
51 1 101 102
52 1 103 104
53 1 105 106
54 1 107 108
55 1 109 110
56 1 111 112
57 1 113 114
58 1 115 116
59 1 117 118
60 1 119 120
61 1 121 122
62 1 123 124
63 1 125 126
64 1 127 128

