LAMMPS data file. CGCMM style. atom_style full generated by VMD/TopoTools v1.7 on Thu Sep 21 10:58:45 EDT 2017
 3 atoms
 2 bonds
 1 angles
 0 dihedrals
 0 impropers
 2 atom types
 1 bond types
 1 angle types
 0 dihedral types
 0 improper types
 -48.460000 51.540000  xlo xhi
 -50.000000 50.000000  ylo yhi
 -50.000000 50.000000  zlo zhi

Pair Coeffs

1  0.0914112887 3.95
2  0.1947460018 3.75

Bond Coeffs

1  300.9 1.54

Angle Coeffs

1  62.1001124929 114.0

Masses

1 14.026580 # CH2
2 15.034520 # CH3

Atoms # full

1 1 2 0.000000 1.597649 0.000000 0.000000 # CH3 
2 1 1 0.000000 0.000000 0.000000 0.000000 # CH2 
3 1 2 0.000000 -0.45992 1.530020 0.000000 # CH3 

Bonds

1 1 1 2
2 1 2 3

Angles

1 1 1 2 3

