LAMMPS data file
# 100 NA molecules
# 100 CL molecules

2 atom types

200 atoms

-10.272 10.272 xlo xhi
-10.2725 10.2725 ylo yhi
-10.272 10.272 zlo zhi

Masses

1   22.990  # na NA
2   35.450  # cl CL

Pair Coeffs

1 0.002770295904 3.330  # na NA
2 0.264822415546 3.471  # cl CL

Atoms

1 1 1  1.000000   -2.95000   -3.81250   -6.07000  # na Na1 NA 1
2 2 1  1.000000   -6.46600    3.50450   -5.06100  # na Na1 NA 2
3 3 1  1.000000    5.16000   -1.15150   -7.00500  # na Na1 NA 3
4 4 1  1.000000    0.44700   -2.33850   -6.71600  # na Na1 NA 4
5 5 1  1.000000    0.81200   -6.94850    5.33800  # na Na1 NA 5
6 6 1  1.000000   -5.22400    4.84750   -2.86900  # na Na1 NA 6
7 7 1  1.000000    4.00600    0.58450   -8.23800  # na Na1 NA 7
8 8 1  1.000000   -3.67100    7.09450   -1.89000  # na Na1 NA 8
9 9 1  1.000000   -4.07000   -6.71350   -5.78500  # na Na1 NA 9
10 10 1  1.000000    6.99800    3.02850   -5.61300  # na Na1 NA 10
11 11 1  1.000000    4.70400    2.88050   -4.16600  # na Na1 NA 11
12 12 1  1.000000    4.84400   -1.23650    8.21300  # na Na1 NA 12
13 13 1  1.000000   -2.88400    4.28850   -4.58500  # na Na1 NA 13
14 14 1  1.000000   -4.20300   -7.71250   -0.87900  # na Na1 NA 14
15 15 1  1.000000   -8.77200   -3.46950    2.35100  # na Na1 NA 15
16 16 1  1.000000   -7.34900   -3.29550    5.23200  # na Na1 NA 16
17 17 1  1.000000   -6.45300    5.00550    7.76000  # na Na1 NA 17
18 18 1  1.000000    8.44500    0.45850   -8.77200  # na Na1 NA 18
19 19 1  1.000000   -1.00600    4.80550    5.60400  # na Na1 NA 19
20 20 1  1.000000   -7.48900   -7.40050    2.12000  # na Na1 NA 20
21 21 1  1.000000   -2.81300    5.39650    3.71000  # na Na1 NA 21
22 22 1  1.000000    0.17400   -0.25250    3.55100  # na Na1 NA 22
23 23 1  1.000000   -5.95300    7.88350   -4.98200  # na Na1 NA 23
24 24 1  1.000000   -1.53400    1.22450    4.58700  # na Na1 NA 24
25 25 1  1.000000   -7.06500   -4.53050   -0.66700  # na Na1 NA 25
26 26 1  1.000000    5.98400    3.29650    6.22400  # na Na1 NA 26
27 27 1  1.000000    3.02400   -1.12250   -6.02600  # na Na1 NA 27
28 28 1  1.000000    5.98600   -4.53050   -6.22000  # na Na1 NA 28
29 29 1  1.000000    8.25500   -6.55750    7.85900  # na Na1 NA 29
30 30 1  1.000000   -0.12300    3.31550    1.63700  # na Na1 NA 30
31 31 1  1.000000    0.26300    8.77050    8.10800  # na Na1 NA 31
32 32 1  1.000000   -6.53900    8.51050    5.50500  # na Na1 NA 32
33 33 1  1.000000    3.79300    3.57850   -6.49500  # na Na1 NA 33
34 34 1  1.000000    2.85700    0.78850    3.91700  # na Na1 NA 34
35 35 1  1.000000    8.47200   -1.96650   -6.24500  # na Na1 NA 35
36 36 1  1.000000   -1.50700    7.62650    0.88800  # na Na1 NA 36
37 37 1  1.000000    3.68000    4.28850    1.42400  # na Na1 NA 37
38 38 1  1.000000    3.65300    6.70950   -2.17500  # na Na1 NA 38
39 39 1  1.000000   -7.26600   -1.30450    3.33900  # na Na1 NA 39
40 40 1  1.000000    0.53200   -4.37850   -1.12400  # na Na1 NA 40
41 41 1  1.000000   -1.42800    0.97450    1.92600  # na Na1 NA 41
42 42 1  1.000000    5.55900    7.55550    6.43200  # na Na1 NA 42
43 43 1  1.000000    1.68100    7.70350   -2.99300  # na Na1 NA 43
44 44 1  1.000000    7.97600    5.58950   -3.97700  # na Na1 NA 44
45 45 1  1.000000   -2.35900   -2.46550    2.61900  # na Na1 NA 45
46 46 1  1.000000    2.92700    8.77150   -0.89100  # na Na1 NA 46
47 47 1  1.000000   -7.98000   -6.52150   -1.78200  # na Na1 NA 47
48 48 1  1.000000   -8.01500   -4.53550    7.13100  # na Na1 NA 48
49 49 1  1.000000    2.13400   -7.41150    2.89800  # na Na1 NA 49
50 50 1  1.000000   -8.77200   -8.73950    6.82800  # na Na1 NA 50
51 51 1  1.000000    6.69900   -6.22950    1.45900  # na Na1 NA 51
52 52 1  1.000000    4.93200   -3.76850    2.56500  # na Na1 NA 52
53 53 1  1.000000    1.98800    3.05150   -3.36300  # na Na1 NA 53
54 54 1  1.000000   -1.95800   -1.71650   -5.02300  # na Na1 NA 54
55 55 1  1.000000   -2.45600    0.93350   -3.91000  # na Na1 NA 55
56 56 1  1.000000    5.92800   -8.66850    4.32900  # na Na1 NA 56
57 57 1  1.000000    2.24400    6.99950   -8.40400  # na Na1 NA 57
58 58 1  1.000000   -8.02900    3.44850    0.86300  # na Na1 NA 58
59 59 1  1.000000    7.13000    3.68050   -3.10100  # na Na1 NA 59
60 60 1  1.000000    2.68500   -3.79050   -8.33900  # na Na1 NA 60
61 61 1  1.000000   -0.37200    1.84050   -7.70000  # na Na1 NA 61
62 62 1  1.000000    2.61000    8.46850   -6.75100  # na Na1 NA 62
63 63 1  1.000000    8.77200   -5.08550    4.26100  # na Na1 NA 63
64 64 1  1.000000   -1.71600   -3.23550   -8.77200  # na Na1 NA 64
65 65 1  1.000000   -6.53200   -8.19950    7.01200  # na Na1 NA 65
66 66 1  1.000000   -2.98700    3.20850   -6.52000  # na Na1 NA 66
67 67 1  1.000000   -0.36700    8.66050   -5.28900  # na Na1 NA 67
68 68 1  1.000000    2.93300   -3.94150    3.81500  # na Na1 NA 68
69 69 1  1.000000   -5.66200   -8.77050    0.38300  # na Na1 NA 69
70 70 1  1.000000    1.65600   -1.49850    7.30800  # na Na1 NA 70
71 71 1  1.000000   -3.23200   -8.77250   -6.09500  # na Na1 NA 71
72 72 1  1.000000   -6.12500   -0.77550    0.60100  # na Na1 NA 72
73 73 1  1.000000    1.56200    8.35350    1.49200  # na Na1 NA 73
74 74 1  1.000000   -1.39900    8.03350    6.86900  # na Na1 NA 74
75 75 1  1.000000    4.40200    8.66050    8.12100  # na Na1 NA 75
76 76 1  1.000000    5.30900   -2.79450   -0.30900  # na Na1 NA 76
77 77 1  1.000000    8.38700   -4.21750   -0.29200  # na Na1 NA 77
78 78 1  1.000000   -3.41700   -8.77150    6.89200  # na Na1 NA 78
79 79 1  1.000000    0.54200   -8.63350   -3.39800  # na Na1 NA 79
80 80 1  1.000000   -6.60300   -5.94350    8.77200  # na Na1 NA 80
81 81 1  1.000000    2.00000   -0.51550   -3.47200  # na Na1 NA 81
82 82 1  1.000000   -7.29800    0.83750   -4.62200  # na Na1 NA 82
83 83 1  1.000000   -5.17700    1.23950    5.81400  # na Na1 NA 83
84 84 1  1.000000   -2.61800   -8.63450    2.23100  # na Na1 NA 84
85 85 1  1.000000   -2.17200    2.83350    0.64900  # na Na1 NA 85
86 86 1  1.000000    8.49500    8.76550    7.94200  # na Na1 NA 86
87 87 1  1.000000    2.09300    7.10150    8.77100  # na Na1 NA 87
88 88 1  1.000000   -1.87000   -2.71950    8.05200  # na Na1 NA 88
89 89 1  1.000000   -4.21900    6.60450    6.98200  # na Na1 NA 89
90 90 1  1.000000    2.46600    0.64150    0.49500  # na Na1 NA 90
91 91 1  1.000000    4.10000    1.88450   -0.95300  # na Na1 NA 91
92 92 1  1.000000    1.88000    2.94850    6.75800  # na Na1 NA 92
93 93 1  1.000000   -5.18600    8.77050    7.83700  # na Na1 NA 93
94 94 1  1.000000   -4.73200   -0.98150    6.95900  # na Na1 NA 94
95 95 1  1.000000    3.07900   -1.31550    5.00200  # na Na1 NA 95
96 96 1  1.000000    5.44000    0.88550    4.91100  # na Na1 NA 96
97 97 1  1.000000   -8.74800   -6.54550    6.61000  # na Na1 NA 97
98 98 1  1.000000    8.34400   -1.19550    0.45700  # na Na1 NA 98
99 99 1  1.000000    8.77200   -8.09550    4.01900  # na Na1 NA 99
100 100 1  1.000000    5.77800    1.34350    2.78600  # na Na1 NA 100
101 101 2 -1.000000    8.42200    4.24950   -6.82100  # cl Cl1 CL 1
102 102 2 -1.000000    8.12800    7.06350   -7.78300  # cl Cl1 CL 2
103 103 2 -1.000000    2.39100   -4.47050   -3.62800  # cl Cl1 CL 3
104 104 2 -1.000000    5.31200    5.09650    7.81700  # cl Cl1 CL 4
105 105 2 -1.000000   -3.53900   -4.73050    8.77200  # cl Cl1 CL 5
106 106 2 -1.000000   -0.01300   -1.39750   -3.37700  # cl Cl1 CL 6
107 107 2 -1.000000   -4.53000    4.15350    0.36800  # cl Cl1 CL 7
108 108 2 -1.000000   -1.60400   -6.59650    6.58400  # cl Cl1 CL 8
109 109 2 -1.000000   -0.04900   -7.51750   -1.26200  # cl Cl1 CL 9
110 110 2 -1.000000    0.88500    0.94850   -4.95000  # cl Cl1 CL 10
111 111 2 -1.000000   -0.97700    8.77050   -1.01200  # cl Cl1 CL 11
112 112 2 -1.000000    4.39900   -4.68950    8.40100  # cl Cl1 CL 12
113 113 2 -1.000000   -4.18000    2.48850    3.18800  # cl Cl1 CL 13
114 114 2 -1.000000    3.65400    1.66750    6.53300  # cl Cl1 CL 14
115 115 2 -1.000000    4.40200    6.07150    4.85000  # cl Cl1 CL 15
116 116 2 -1.000000   -1.93100    4.88250   -1.73700  # cl Cl1 CL 16
117 117 2 -1.000000   -3.63100   -2.70950   -0.71800  # cl Cl1 CL 17
118 118 2 -1.000000   -2.82900   -5.03950   -2.56100  # cl Cl1 CL 18
119 119 2 -1.000000    3.08500    3.35750    4.76100  # cl Cl1 CL 19
120 120 2 -1.000000    8.12900   -7.51650   -5.99500  # cl Cl1 CL 20
121 121 2 -1.000000   -4.87700   -5.54150    7.13200  # cl Cl1 CL 21
122 122 2 -1.000000    3.33900   -6.20550    4.36400  # cl Cl1 CL 22
123 123 2 -1.000000    2.10400    1.84150   -7.44400  # cl Cl1 CL 23
124 124 2 -1.000000    0.54900   -6.45450    8.54400  # cl Cl1 CL 24
125 125 2 -1.000000   -1.87300   -2.98350    5.53300  # cl Cl1 CL 25
126 126 2 -1.000000   -3.53100   -1.65250    4.29600  # cl Cl1 CL 26
127 127 2 -1.000000   -0.78800    6.16650    2.42000  # cl Cl1 CL 27
128 128 2 -1.000000    4.95600    8.77150   -2.89800  # cl Cl1 CL 28
129 129 2 -1.000000   -1.83400   -8.32250    8.77100  # cl Cl1 CL 29
130 130 2 -1.000000   -4.39300    4.43150   -8.76800  # cl Cl1 CL 30
131 131 2 -1.000000   -4.40600    3.74350    5.69700  # cl Cl1 CL 31
132 132 2 -1.000000    0.02300   -2.69750    3.63200  # cl Cl1 CL 32
133 133 2 -1.000000    7.32400    4.72850   -0.33100  # cl Cl1 CL 33
134 134 2 -1.000000    5.76900   -8.71250   -6.79100  # cl Cl1 CL 34
135 135 2 -1.000000   -2.16300   -6.52650   -7.34200  # cl Cl1 CL 35
136 136 2 -1.000000    2.80500   -4.69050    0.87300  # cl Cl1 CL 36
137 137 2 -1.000000   -2.04200   -0.23950    6.41900  # cl Cl1 CL 37
138 138 2 -1.000000    2.01100   -1.93650    1.94600  # cl Cl1 CL 38
139 139 2 -1.000000   -0.60000   -4.59250    8.77200  # cl Cl1 CL 39
140 140 2 -1.000000    7.43400    0.49150   -3.00200  # cl Cl1 CL 40
141 141 2 -1.000000   -8.24800    6.93750    6.09900  # cl Cl1 CL 41
142 142 2 -1.000000    0.67200   -4.20950    2.17200  # cl Cl1 CL 42
143 143 2 -1.000000    3.44700   -6.73450   -6.10600  # cl Cl1 CL 43
144 144 2 -1.000000    3.41400   -8.65650    8.61200  # cl Cl1 CL 44
145 145 2 -1.000000    2.51000    6.74050    2.64900  # cl Cl1 CL 45
146 146 2 -1.000000    0.45800    8.76950   -7.38600  # cl Cl1 CL 46
147 147 2 -1.000000    0.62100   -0.33050   -1.30400  # cl Cl1 CL 47
148 148 2 -1.000000   -8.05100   -5.57550   -6.44200  # cl Cl1 CL 48
149 149 2 -1.000000   -6.11300    1.99950   -1.45100  # cl Cl1 CL 49
150 150 2 -1.000000    0.54300    1.82650    4.17500  # cl Cl1 CL 50
151 151 2 -1.000000   -8.24800   -2.42850    8.77200  # cl Cl1 CL 51
152 152 2 -1.000000   -8.63500   -6.96850    8.77200  # cl Cl1 CL 52
153 153 2 -1.000000   -6.90600    4.12150    3.60100  # cl Cl1 CL 53
154 154 2 -1.000000   -4.94200   -6.67550    2.85200  # cl Cl1 CL 54
155 155 2 -1.000000    0.50100    4.34550   -6.52600  # cl Cl1 CL 55
156 156 2 -1.000000   -2.76600   -6.74450    3.34700  # cl Cl1 CL 56
157 157 2 -1.000000   -7.23000    1.46650    3.94200  # cl Cl1 CL 57
158 158 2 -1.000000   -1.05300    4.91050    8.77200  # cl Cl1 CL 58
159 159 2 -1.000000   -2.55400    3.32050    7.34900  # cl Cl1 CL 59
160 160 2 -1.000000   -6.03500   -8.05250   -5.66600  # cl Cl1 CL 60
161 161 2 -1.000000   -3.74500   -8.27750   -8.77100  # cl Cl1 CL 61
162 162 2 -1.000000   -1.99300    4.98250   -8.69400  # cl Cl1 CL 62
163 163 2 -1.000000    8.77200    1.78550    5.31200  # cl Cl1 CL 63
164 164 2 -1.000000    4.63100    0.32650   -2.54500  # cl Cl1 CL 64
165 165 2 -1.000000   -3.85600   -7.33750    5.16400  # cl Cl1 CL 65
166 166 2 -1.000000   -0.18000   -7.96950   -5.49900  # cl Cl1 CL 66
167 167 2 -1.000000   -7.77600   -2.73850   -4.02300  # cl Cl1 CL 67
168 168 2 -1.000000    4.85500   -4.16750   -3.04100  # cl Cl1 CL 68
169 169 2 -1.000000    6.82900    0.58450   -6.37600  # cl Cl1 CL 69
170 170 2 -1.000000    3.10400    0.09150    7.99000  # cl Cl1 CL 70
171 171 2 -1.000000    2.17900    5.34150   -1.25000  # cl Cl1 CL 71
172 172 2 -1.000000   -1.50600    6.84850    4.96100  # cl Cl1 CL 72
173 173 2 -1.000000    1.30100    2.23550   -1.10200  # cl Cl1 CL 73
174 174 2 -1.000000    7.48600    2.18750   -0.09000  # cl Cl1 CL 74
175 175 2 -1.000000    6.80800    8.51250    0.06400  # cl Cl1 CL 75
176 176 2 -1.000000   -4.39100   -2.43650   -3.92300  # cl Cl1 CL 76
177 177 2 -1.000000    3.18500    5.36350    7.32100  # cl Cl1 CL 77
178 178 2 -1.000000    0.55300    0.46850    6.98300  # cl Cl1 CL 78
179 179 2 -1.000000   -8.18500    5.82350   -2.87200  # cl Cl1 CL 79
180 180 2 -1.000000   -0.35100    6.15950   -3.20400  # cl Cl1 CL 80
181 181 2 -1.000000   -5.95000   -5.19450    5.16400  # cl Cl1 CL 81
182 182 2 -1.000000    8.72000    4.90250    4.90700  # cl Cl1 CL 82
183 183 2 -1.000000   -5.10300   -6.17850    0.71500  # cl Cl1 CL 83
184 184 2 -1.000000   -2.55600    8.77250    5.14900  # cl Cl1 CL 84
185 185 2 -1.000000   -8.77200    2.31950   -5.66400  # cl Cl1 CL 85
186 186 2 -1.000000    2.59700    5.76650   -5.05800  # cl Cl1 CL 86
187 187 2 -1.000000   -0.45700   -7.26950    3.10600  # cl Cl1 CL 87
188 188 2 -1.000000    6.55100    7.87050   -5.55200  # cl Cl1 CL 88
189 189 2 -1.000000   -7.94900    7.59650    1.37400  # cl Cl1 CL 89
190 190 2 -1.000000    7.67100    5.68550    6.68000  # cl Cl1 CL 90
191 191 2 -1.000000   -2.93600   -5.54150    0.32600  # cl Cl1 CL 91
192 192 2 -1.000000   -4.57000   -2.58050    2.04600  # cl Cl1 CL 92
193 193 2 -1.000000    2.53600   -8.31150    0.75000  # cl Cl1 CL 93
194 194 2 -1.000000   -8.69700   -1.13050    6.14100  # cl Cl1 CL 94
195 195 2 -1.000000    6.13300    2.81450    8.77100  # cl Cl1 CL 95
196 196 2 -1.000000    1.37900    4.33550   -8.77100  # cl Cl1 CL 96
197 197 2 -1.000000   -5.47400    0.35150    2.37500  # cl Cl1 CL 97
198 198 2 -1.000000    7.54800    8.77150   -3.81000  # cl Cl1 CL 98
199 199 2 -1.000000   -0.42200   -5.23050   -3.10400  # cl Cl1 CL 99
200 200 2 -1.000000    5.51800   -1.22750   -4.26300  # cl Cl1 CL 100