LAMMPS data file. CGCMM style. atom_style full generated by VMD/TopoTools v1.7 on Thu Oct 12 16:01:52 EDT 2017
 6 atoms
 6 bonds
 6 angles
 24 dihedrals
 0 impropers
 2 atom types
 1 bond types
 2 angle types
 4 dihedral types
 0 improper types
 -50.033000 49.967000  xlo xhi
 -49.999895 50.000105  ylo yhi
 -49.904430 50.095570  zlo zhi

Pair Coeffs

1  0.10432818898806179 3.91 # C
2  0.3080165579647538  2.39 # O

Bond Coeffs

1  300.9 1.44

Angle Coeffs

1 92.6036877494034        111.55 # O-C2-O  
2 60.01354871313268       112.00 # C2-O-C2 

Dihedral Coeffs

1 -32.709371252257085 0    -90   0.0
2  35.20927338077102  1      0   0.0
3  17.644380762380962 2      0   0.0
4  3.1477305020398068 3      0   0.0

Masses

1 14.02658 # CH2
2 15.999 # O

 Atoms # full

1 1 1 0.36    0.209324   -0.730026    0.255283 # C
2 1 2 -0.36   -0.831292    0.101205   -0.266117 # O
3 1 1 0.36    -0.645184    1.443076    0.192608 # C
4 1 2 -0.36    0.623272    1.928940   -0.255322 # O
5 1 1 0.36    1.663887    1.097708    0.266078 # C
6 1 2 -0.36    1.477779   -0.244163   -0.192647 # O

 Bonds

1 1 1 6
2 1 1 2
3 1 2 3
4 1 3 4
5 1 4 5
6 1 5 6

 Angles

1 1 2 1 6
2 2 1 2 3
3 1 2 3 4
4 2 3 4 5
5 1 4 5 6
6 2 1 6 5

 Dihedrals

1 1 2 1 6 5
2 2 2 1 6 5
3 3 2 1 6 5
4 4 2 1 6 5
5 1 6 1 2 3
6 2 6 1 2 3
7 3 6 1 2 3
8 4 6 1 2 3
9  1 1 2 3 4
10 2 1 2 3 4
11 3 1 2 3 4
12 4 1 2 3 4
13 1 2 3 4 5
14 2 2 3 4 5
15 3 2 3 4 5
16 4 2 3 4 5
17 1 3 4 5 6
18 2 3 4 5 6
19 3 3 4 5 6
20 4 3 4 5 6
21 1 4 5 6 1
22 2 4 5 6 1
23 3 4 5 6 1
24 4 4 5 6 1
