LAMMPS data file. CGCMM style. atom_style full generated by VMD/TopoTools v1.7 on Tue Nov 07 10:55:18 EST 2017
 4 atoms
 3 bonds
 2 angles
 1 dihedrals
 0 impropers
 4 atom types
 3 bond types
 2 angle types
 1 dihedral types
 0 improper types
 -49.422625 50.577375  xlo xhi
 -49.998185 50.001815  ylo yhi
 -50.183952 49.816048  zlo zhi

Pair Coeffs

1 0.19474595277771534 3.75 # CH3
2 0.09141136558953984 3.95 # CH2
3 0.18480993477885233 3.02 # O
4 0.00000000000000000 0.0  # H

Bond Coeffs

1 300.9	1.5400 # CH3 CH2
2 300.9	1.4300 # CH2 O
3 300.9	0.9450 # O H

Angle Coeffs

1 50.077530714269656	109.47 # CH3 CH2 O
2 55.045539713701174    108.5 # CH2 O H

Dihedral Coeffs

1 0.83382468 -0.11592158 0.74683382 0.0

Masses

1 15.045200 # C.3
2 14.026580 # C.2
3 16.999000 # O
4 1.007940  # H

Atoms # full

1 1 1  0.0    1.608452   -0.006127    1.269557
2 1 2  0.265    1.078529    0.010063   -0.176306
3 1 3  -0.70    -0.351283   -0.007241   -0.160882
4 1 4  0.435    -0.686069   -0.876176    0.324329

 Bonds

1 1 1 2
2 2 2 3
3 3 3 4

 Angles

1 1 1 2 3
2 2 2 3 4

 Dihedrals 

1 1 1 2 3 4
