LAMMPS data file. CGCMM style. atom_style full generated by VMD/TopoTools v1.7 on Thu Sep 21 11:08:56 EDT 2017
 4 atoms
 3 bonds
 2 angles
 1 dihedrals
 0 impropers
 2 atom types
 1 bond types
 1 angle types
 1 dihedral types
 0 improper types
 -47.690000 52.310000  xlo xhi
 -50.000000 50.000000  ylo yhi
 -50.000000 50.000000  zlo zhi

Pair Coeffs

1   0.0914112887 3.95
2   0.1947460018 3.75

Bond Coeffs

1   300.9  1.54

Angle Coeffs

1 62.10011249289392 114.0

Masses

1 14.026580 # CH2
2 15.034520 # CH3

 Atoms # full

1 1 2 0.000000 0.0000000  -0.4597000  -1.5302000 # CH3 
2 1 1 0.000000 0.0000000   0.0000000   0.0000000 # CH2 
3 1 1 0.000000 0.0000000   1.5980000   0.0000000 # CH2 
4 1 2 0.000000 -1.4740000   1.5730000  -0.6167000 # CH3 

 Bonds

1 1 1 2
2 1 2 3
3 1 3 4

 Angles

1 1 1 2 3
2 1 2 3 4

 Dihedrals

1 1 1 2 3 4

