LAMMPS data file. CGCMM style. atom_style full generated by VMD/TopoTools v1.7 on Thu Sep 21 11:27:08 EDT 2017
 5 atoms
 4 bonds
 3 angles
 2 dihedrals
 0 impropers
 2 atom types
 2 bond types
 2 angle types
 1 dihedral types
 0 improper types
 -46.920000 53.080000  xlo xhi
 -50.000000 50.000000  ylo yhi
 -50.000000 50.000000  zlo zhi

Pair Coeffs

1   0.0914112887 3.95
2   0.1947460018 3.75

Bond Coeffs

1   300.9  1.54
2   300.9  1.54

Angle Coeffs

1   62.1001281 114.0
2   62.1001281 114.0

Dihedral Coeffs

1 1.41103414 -0.27101489 3.14502869 0.0

 Masses

 1 14.026580 # CH2
 2 15.034520 # CH3

 Atoms # full

1 1 2 0.000000 0.000000 0.000000 0.000000 # CH3 
2 1 1 0.000000 1.540000 0.000000 0.000000 # CH2 
3 1 1 0.000000 3.080000 0.000000 0.000000 # CH2 
4 1 1 0.000000 4.620000 0.000000 0.000000 # CH2 
5 1 2 0.000000 6.160000 0.000000 0.000000 # CH3 

 Bonds

1 2 1 2
2 1 2 3
3 1 3 4
4 2 4 5

 Angles

1 2 1 2 3
2 1 2 3 4
3 2 3 4 5

 Dihedrals

1 1 1 2 3 4
2 1 2 3 4 5

