LAMMPS data file. CGCMM style. atom_style full generated by VMD/TopoTools v1.7 on Thu Sep 21 10:51:46 EDT 2017
 2 atoms
 1 bonds
 0 angles
 0 dihedrals
 0 impropers
 1 atom types
 1 bond types
 0 angle types
 0 dihedral types
 0 improper types
 -4.230000 5.770000  xlo xhi
 -5.000000 5.000000  ylo yhi
 -5.000000 5.000000  zlo zhi

Pair Coeffs

1  0.1947460018 3.75

Bond Coeffs

1  300.9 1.54

 Masses

 1 15.034520 # CH3

 Atoms # full

1 1 1 0.000000 0.000000 0.000000 0.000000 # CH3 
2 1 1 0.000000 1.540000 0.000000 0.000000 # CH3 

 Bonds

1 1 1 2

