LAMMPS data file. CGCMM style. atom_style full generated by VMD/TopoTools v1.7 on Tue Oct 24 12:03:46 EDT 2017
 14 atoms
 13 bonds
 12 angles
 11 dihedrals
 0 impropers
 2 atom types
 1 bond types
 1 angle types
 1 dihedral types
 0 improper types
 -50.000000 50.000000  xlo xhi
 -49.999985 50.000015  ylo yhi
 -49.999890 50.000110  zlo zhi

Pair Coeffs

1   0.0914112887 3.95
2   0.1947460018 3.75

Bond Coeffs

1   300.9  1.54

Angle Coeffs

1 62.1001124929 114.0

Dihedral Coeffs

1 1.41103414 -0.27101489 3.14502869 0.0

Masses

1 14.026580 # CH2
2 15.034520 # CH3

 Atoms # full

1 1 2 0.000000 8.164640 0.139050 0.010180 # C 
2 1 1 0.000000 6.858910 0.901260 -0.001440 # C 
3 1 1 0.000000 5.664630 -0.039470 0.008730 # C 
4 1 1 0.000000 4.353270 0.729050 -0.002940 # C 
5 1 1 0.000000 3.160080 -0.212660 0.007360 # C 
6 1 1 0.000000 1.848980 0.556560 -0.004330 # C 
7 1 1 0.000000 0.655470 -0.384740 0.005940 # C 
8 1 1 0.000000 -0.655470 0.384800 -0.005760 # C 
9 1 1 0.000000 -1.848970 -0.556510 0.004500 # C 
10 1 1 0.000000 -3.160070 0.212720 -0.007220 # C 
11 1 1 0.000000 -4.353270 -0.729000 0.003030 # C 
12 1 1 0.000000 -5.664630 0.039520 -0.008690 # C 
13 1 1 0.000000 -6.858900 -0.901230 0.001710 # C 
14 1 2 0.000000 -8.164640 -0.139030 -0.009960 # C 

 Bonds

1 1 1 2
2 1 2 3
3 1 3 4
4 1 4 5
5 1 5 6
6 1 6 7
7 1 7 8
8 1 8 9
9 1 9 10
10 1 10 11
11 1 11 12
12 1 12 13
13 1 13 14

 Angles

1 1 1 2 3
2 1 2 3 4
3 1 3 4 5
4 1 4 5 6
5 1 5 6 7
6 1 6 7 8
7 1 7 8 9
8 1 8 9 10
9 1 9 10 11
10 1 10 11 12
11 1 11 12 13
12 1 12 13 14

 Dihedrals

1 1 1 2 3 4
2 1 2 3 4 5
3 1 3 4 5 6
4 1 4 5 6 7
5 1 5 6 7 8
6 1 6 7 8 9
7 1 7 8 9 10
8 1 8 9 10 11
9 1 9 10 11 12
10 1 10 11 12 13
11 1 11 12 13 14
