ITEM: TIMESTEP
0
ITEM: NUMBER OF ATOMS
14
ITEM: BOX BOUNDS pp pp pp
-5.0000000000000000e+01 5.0000000000000000e+01
-4.9999985000000002e+01 5.0000014999999998e+01
-4.9999890000000001e+01 5.0000109999999999e+01
ITEM: ATOMS id type x y z vx vy vz mol 
14 2 -8.16464 -0.13903 -0.00996 -0.00139865 0.00253575 0.00244871 1 
8 1 -0.65547 0.3848 -0.00576 0.00263237 -0.00522138 -0.00413091 1 
10 1 -3.16007 0.21272 -0.00722 0.00307173 -0.00574115 0.00309404 1 
12 1 -5.66463 0.03952 -0.00869 0.00579784 0.00444416 -0.00544247 1 
2 1 6.85891 0.90126 -0.00144 -0.000490256 0.00257589 -0.00836254 1 
4 1 4.35327 0.72905 -0.00294 -0.00279675 0.00364847 0.00156719 1 
6 1 1.84898 0.55656 -0.00433 0.000623064 -0.00545806 -0.000866947 1 
9 1 -1.84897 -0.55651 0.0045 0.000326052 -0.00129087 -0.00142474 1 
11 1 -4.35327 -0.729 0.00303 -0.00543016 0.00586298 0.00014254 1 
13 1 -6.8589 -0.90123 0.00171 0.00202307 -0.00392986 0.000771925 1 
3 1 5.66463 -0.03947 0.00873 -0.00494102 -0.00110407 -4.19013e-05 1 
5 1 3.16008 -0.21266 0.00736 0.000101582 0.00431387 0.00614875 1 
7 1 0.65547 -0.38474 0.00594 -0.00527663 -0.00541314 0.00477776 1 
1 2 8.16464 0.13905 0.01018 0.0054655 0.00428712 0.00106602 1 
