LAMMPS data file. CGCMM style. atom_style full generated by VMD/TopoTools v1.7 on Thu Sep 21 11:08:56 EDT 2017
800    atoms
 0 bonds
 0 angles
 0 dihedrals
 0 impropers
 1 atom types
 0 bond types
 0 angle types
 0 dihedral types
 0 improper types
 -18.65 18.65  xlo xhi
 -18.65 18.65  ylo yhi
 -18.65 18.65  zlo zhi

Pair Coeffs

1   0.2941062068 3.73

Atoms # full

1 1 1 0.0 -0.420133 5.1664 -3.29808
2 2 1 0.0 -9.18966 -5.13175 3.12997
3 3 1 0.0 -11.3641 6.15846 16.4114
4 4 1 0.0 17.7968 12.2028 10.4486
5 5 1 0.0 -7.07449 16.1668 16.6461
6 6 1 0.0 -13.6265 -13.9944 -3.39744
7 7 1 0.0 -16.544 3.58781 12.6045
8 8 1 0.0 -14.6323 0.362026 15.6975
9 9 1 0.0 -17.6752 -5.94828 -5.37788
10 10 1 0.0 -15.2777 12.4447 -1.99169
11 11 1 0.0 -7.71499 -2.34518 18.3412
12 12 1 0.0 -5.47528 14.0006 6.44089
13 13 1 0.0 7.76141 12.4665 13.2078
14 14 1 0.0 -8.8427 -4.01276 10.6397
15 15 1 0.0 8.7169 -17.0703 -16.6943
16 16 1 0.0 6.72553 13.4512 2.47113
17 17 1 0.0 -2.67104 -4.97241 -14.5192
18 18 1 0.0 3.85928 -10.1895 4.16035
19 19 1 0.0 -12.7837 9.29469 -1.28996
20 20 1 0.0 -0.782617 6.59911 1.70165
21 21 1 0.0 16.2042 -5.41328 14.8256
22 22 1 0.0 -6.91489 -0.123258 8.77359
23 23 1 0.0 18.341 -18.6007 16.7203
24 24 1 0.0 8.29637 5.38439 10.7173
25 25 1 0.0 -16.29 -0.648206 -5.61514
26 26 1 0.0 15.5196 -11.8516 -14.1629
27 27 1 0.0 16.3279 -2.76009 4.60714
28 28 1 0.0 7.08357 16.6439 -10.7418
29 29 1 0.0 -0.782659 6.48983 -7.52789
30 30 1 0.0 2.96554 -11.4943 17.2613
31 31 1 0.0 -3.79777 16.7678 13.8457
32 32 1 0.0 -16.5107 17.1083 4.8478
33 33 1 0.0 -14.484 -9.17874 0.0452901
34 34 1 0.0 -13.7443 -6.6473 13.6961
35 35 1 0.0 -13.7223 -7.4089 -16.0516
36 36 1 0.0 15.5766 -10.3917 -17.755
37 37 1 0.0 -12.9349 9.77012 7.6488
38 38 1 0.0 10.3035 11.1536 -17.1976
39 39 1 0.0 9.96774 -8.10874 15.4913
40 40 1 0.0 14.5473 -3.19131 -13.2266
41 41 1 0.0 -10.9069 -16.2738 -18.4224
42 42 1 0.0 -9.62975 1.72063 7.12143
43 43 1 0.0 -8.72286 13.0624 -13.2431
44 44 1 0.0 -15.9185 4.36177 -6.42788
45 45 1 0.0 -5.08616 -6.7416 -2.14527
46 46 1 0.0 3.68945 10.1924 6.52857
47 47 1 0.0 15.6991 -2.57813 11.1709
48 48 1 0.0 -6.51565 -5.26958 -16.2285
49 49 1 0.0 -6.13876 -2.76806 -12.1578
50 50 1 0.0 -5.88222 3.62015 -15.7793
51 51 1 0.0 4.98868 -5.4446 -17.0776
52 52 1 0.0 -14.8987 4.29329 15.8513
53 53 1 0.0 -2.36954 -1.68333 1.99961
54 54 1 0.0 14.4578 8.0948 -8.82955
55 55 1 0.0 18.0907 16.4477 -0.420087
56 56 1 0.0 6.65476 16.0198 -3.67825
57 57 1 0.0 -17.6607 -1.7701 17.8406
58 58 1 0.0 5.00757 -12.9642 -12.2839
59 59 1 0.0 2.65195 -12.2912 -5.02052
60 60 1 0.0 -11.7896 11.4109 -10.1255
61 61 1 0.0 -11.1816 -5.35348 -0.206699
62 62 1 0.0 18.5233 -8.67908 16.0284
63 63 1 0.0 -3.98361 -3.55117 12.9952
64 64 1 0.0 -8.86893 15.0599 -4.29607
65 65 1 0.0 -16.9296 -2.17077 7.64801
66 66 1 0.0 2.11696 3.11272 6.14599
67 67 1 0.0 -14.7266 18.1372 10.4731
68 68 1 0.0 -6.56622 10.3801 -11.1098
69 69 1 0.0 -2.00087 12.6076 7.84588
70 70 1 0.0 5.6856 18.4045 -18.4813
71 71 1 0.0 -10.3426 -5.84084 17.1614
72 72 1 0.0 4.33007 7.94971 -1.91734
73 73 1 0.0 -11.4857 -4.20174 -9.77907
74 74 1 0.0 -15.8029 -6.47876 8.406
75 75 1 0.0 2.33768 -12.5412 -16.0264
76 76 1 0.0 -16.3719 -16.8203 -14.8666
77 77 1 0.0 -8.13597 -7.35098 9.12477
78 78 1 0.0 5.98391 -13.799 -4.26375
79 79 1 0.0 -5.6956 -16.9241 -12.6292
80 80 1 0.0 13.1696 -18.4201 -5.64902
81 81 1 0.0 18.343 17.2703 -14.3707
82 82 1 0.0 -3.17315 1.92019 -3.22508
83 83 1 0.0 9.7554 16.0092 -16.0184
84 84 1 0.0 0.368202 -11.8767 -1.03595
85 85 1 0.0 9.57375 17.8796 16.7865
86 86 1 0.0 16.258 -4.43347 -18.5617
87 87 1 0.0 9.93951 13.6177 -0.418161
88 88 1 0.0 15.6871 -14.7552 17.043
89 89 1 0.0 4.65879 -3.55147 -0.913467
90 90 1 0.0 8.6843 16.3003 12.8649
91 91 1 0.0 17.503 9.50051 14.0082
92 92 1 0.0 13.4857 14.1464 -6.01243
93 93 1 0.0 -12.0137 -14.9107 -13.005
94 94 1 0.0 -1.80616 -15.0723 0.365247
95 95 1 0.0 16.868 -3.52985 -5.93579
96 96 1 0.0 -1.08234 17.2328 17.3351
97 97 1 0.0 -13.9851 -12.7506 5.95611
98 98 1 0.0 -4.15113 -2.39423 -17.5646
99 99 1 0.0 0.0991536 13.0548 14.9799
100 100 1 0.0 -12.127 5.74347 6.31324
101 101 1 0.0 8.95541 -12.3281 -10.7571
102 102 1 0.0 6.75089 10.0738 -15.9852
103 103 1 0.0 -11.1949 16.3262 -7.30566
104 104 1 0.0 -8.13409 -11.6456 2.08321
105 105 1 0.0 11.5665 -15.0915 -3.95381
106 106 1 0.0 -5.76783 -4.06482 8.71559
107 107 1 0.0 -14.4304 -0.820645 -15.662
108 108 1 0.0 5.06698 14.2279 8.199
109 109 1 0.0 -10.8148 3.44393 -6.23163
110 110 1 0.0 2.13905 -15.7545 -12.999
111 111 1 0.0 15.2254 -14.2472 -5.29549
112 112 1 0.0 -13.2502 -3.62173 8.93406
113 113 1 0.0 8.44951 2.91377 -9.50569
114 114 1 0.0 -13.2541 12.0285 -6.45196
115 115 1 0.0 6.21201 7.44379 -9.19528
116 116 1 0.0 10.4341 3.72168 -18.3447
117 117 1 0.0 -11.75 2.30104 14.2437
118 118 1 0.0 4.88488 -6.88209 -7.25746
119 119 1 0.0 5.68465 -1.90774 10.7539
120 120 1 0.0 18.5333 11.9612 0.499294
121 121 1 0.0 11.5966 12.5179 3.20283
122 122 1 0.0 1.26119 -5.93194 -14.7216
123 123 1 0.0 -16.0275 -5.9848 -9.59947
124 124 1 0.0 16.7659 5.61807 -15.1393
125 125 1 0.0 -0.765672 -15.0518 -18.4904
126 126 1 0.0 0.0815431 2.65705 -6.85629
127 127 1 0.0 -10.4102 -11.5492 -7.18143
128 128 1 0.0 15.6192 3.91896 -7.20658
129 129 1 0.0 -7.81065 -8.72089 -5.31546
130 130 1 0.0 -1.17569 13.8914 3.29101
131 131 1 0.0 -11.0291 8.58765 4.47729
132 132 1 0.0 5.40152 -5.48552 2.65977
133 133 1 0.0 -9.73391 1.75101 -9.75531
134 134 1 0.0 15.2994 18.5214 -12.6729
135 135 1 0.0 7.27258 -9.59929 1.91904
136 136 1 0.0 14.9892 -9.36618 14.3272
137 137 1 0.0 -15.8881 -2.38701 13.069
138 138 1 0.0 6.07692 -2.60525 -9.80523
139 139 1 0.0 -0.738507 -10.7742 6.69965
140 140 1 0.0 -14.5874 -10.4535 9.86197
141 141 1 0.0 17.7149 8.28333 7.55427
142 142 1 0.0 0.0970245 5.08699 -15.4974
143 143 1 0.0 -15.1093 15.5763 -8.02705
144 144 1 0.0 -4.53826 18.4432 5.15121
145 145 1 0.0 -0.730551 -10.1341 -4.58762
146 146 1 0.0 -16.2545 7.27542 5.34911
147 147 1 0.0 1.0494 -0.386569 16.3901
148 148 1 0.0 3.41381 13.2155 -10.0158
149 149 1 0.0 -3.15364 1.07767 9.49738
150 150 1 0.0 -11.5456 6.11585 -3.59916
151 151 1 0.0 -4.09455 -11.3331 -2.1661
152 152 1 0.0 -4.14339 11.335 -14.619
153 153 1 0.0 7.60337 -15.2683 16.5947
154 154 1 0.0 8.88381 -18.5459 4.02614
155 155 1 0.0 -1.80581 1.07231 14.0519
156 156 1 0.0 17.4041 -9.58504 -11.3734
157 157 1 0.0 14.3502 15.8682 -2.39615
158 158 1 0.0 -9.50696 -16.8282 -10.4105
159 159 1 0.0 14.3749 2.52498 -3.93105
160 160 1 0.0 -18.1989 6.92048 11.6094
161 161 1 0.0 5.32328 -12.7913 -8.1021
162 162 1 0.0 -10.9212 -17.8559 6.86994
163 163 1 0.0 9.33019 -17.6887 -12.5189
164 164 1 0.0 6.2745 -6.34557 -13.7118
165 165 1 0.0 16.4286 1.82861 3.28991
166 166 1 0.0 15.1612 17.6359 8.38655
167 167 1 0.0 5.54899 -2.5384 -5.00243
168 168 1 0.0 12.9394 -1.22959 5.92139
169 169 1 0.0 8.43113 -11.3346 5.76235
170 170 1 0.0 -4.65696 -9.29773 -15.4411
171 171 1 0.0 14.3835 5.78562 16.2357
172 172 1 0.0 -15.767 12.1269 -9.93458
173 173 1 0.0 14.8874 13.0757 0.0959033
174 174 1 0.0 -4.25902 4.51984 3.38176
175 175 1 0.0 -17.0703 -5.25103 15.7133
176 176 1 0.0 -18.5593 2.79474 -4.14161
177 177 1 0.0 16.5659 14.1957 3.39002
178 178 1 0.0 9.5131 1.64658 10.226
179 179 1 0.0 -9.30414 -1.47084 14.7475
180 180 1 0.0 -8.11856 -1.80179 -8.78113
181 181 1 0.0 -12.4873 16.8711 18.3446
182 182 1 0.0 4.01498 -12.5788 0.430462
183 183 1 0.0 -9.92382 14.0545 -18.2545
184 184 1 0.0 -10.2953 2.03416 -16.4775
185 185 1 0.0 16.4341 11.1049 -6.29591
186 186 1 0.0 -15.9332 -10.953 -4.189
187 187 1 0.0 -16.9944 1.51768 -0.814021
188 188 1 0.0 12.2327 16.6521 2.19125
189 189 1 0.0 -18.2625 2.83088 7.60815
190 190 1 0.0 -7.06697 12.0385 16.4426
191 191 1 0.0 -7.83739 4.06123 0.54547
192 192 1 0.0 -14.8648 -11.2663 -9.72822
193 193 1 0.0 14.4664 9.99108 9.80207
194 194 1 0.0 12.7315 -17.9812 5.35232
195 195 1 0.0 9.27059 0.616305 3.60719
196 196 1 0.0 16.0245 18.6335 13.75
197 197 1 0.0 -16.1612 11.2321 7.37387
198 198 1 0.0 -12.09 -2.43685 12.229
199 199 1 0.0 -4.79022 -16.8338 18.4387
200 200 1 0.0 -12.2295 -14.516 10.5101
201 201 1 0.0 6.4679 -10.1621 -5.83863
202 202 1 0.0 -14.3769 -15.2808 -10.0516
203 203 1 0.0 -7.84754 9.56839 -17.3932
204 204 1 0.0 2.86672 -11.3084 8.94208
205 205 1 0.0 2.96048 11.4949 -4.955
206 206 1 0.0 -13.3705 -17.7597 -7.20711
207 207 1 0.0 16.1839 -7.46669 -8.55387
208 208 1 0.0 -3.51004 9.73651 -6.86142
209 209 1 0.0 8.57574 -8.85119 -9.12342
210 210 1 0.0 -2.08468 15.6086 -0.267971
211 211 1 0.0 -1.35482 -12.4564 -8.35855
212 212 1 0.0 -10.8705 17.3445 10.4514
213 213 1 0.0 0.76663 4.44493 10.6743
214 214 1 0.0 -10.4508 14.7891 14.5938
215 215 1 0.0 -14.6789 -14.9399 2.7393
216 216 1 0.0 -16.6802 -8.15027 -12.9397
217 217 1 0.0 0.929579 18.6049 -9.17848
218 218 1 0.0 -2.45234 -15.1476 -10.6301
219 219 1 0.0 18.0087 -17.2139 4.77449
220 220 1 0.0 11.9788 1.99437 -7.83341
221 221 1 0.0 -8.15966 -14.6966 12.2063
222 222 1 0.0 4.49163 5.37693 2.0499
223 223 1 0.0 -12.5029 5.32687 12.0663
224 224 1 0.0 12.1221 13.1149 13.144
225 225 1 0.0 18.1084 -15.713 0.628923
226 226 1 0.0 16.9635 -0.543698 8.01713
227 227 1 0.0 16.6915 -10.4708 -4.79354
228 228 1 0.0 11.0214 -16.7179 1.50499
229 229 1 0.0 5.74272 -6.70011 13.1225
230 230 1 0.0 8.52684 -15.0686 -8.39369
231 231 1 0.0 3.82345 -6.84715 16.5416
232 232 1 0.0 -0.724332 9.89154 -15.4151
233 233 1 0.0 -7.43152 10.8815 -0.179116
234 234 1 0.0 -6.88727 2.33491 -7.2227
235 235 1 0.0 -5.23509 14.7274 2.17544
236 236 1 0.0 -5.22603 0.938094 18.2137
237 237 1 0.0 -10.9425 16.2255 -0.679905
238 238 1 0.0 1.1105 -11.9569 -11.7667
239 239 1 0.0 8.46861 -14.0556 -0.844443
240 240 1 0.0 1.90022 -2.52825 1.91256
241 241 1 0.0 -2.37737 4.75159 7.10275
242 242 1 0.0 -0.696334 -3.16738 -17.1774
243 243 1 0.0 -1.62175 -4.80128 0.185186
244 244 1 0.0 -4.84259 0.282928 5.78505
245 245 1 0.0 3.82123 0.932808 -7.63448
246 246 1 0.0 -15.0992 16.6981 15.1627
247 247 1 0.0 -16.4348 15.4749 -18.1406
248 248 1 0.0 13.4122 7.72269 -16.2671
249 249 1 0.0 -15.6355 13.9236 10.6841
250 250 1 0.0 12.3836 -9.3814 -6.25233
251 251 1 0.0 -14.1319 13.1138 14.7468
252 252 1 0.0 -8.02686 6.15355 -8.28257
253 253 1 0.0 9.99609 -18.1773 8.29678
254 254 1 0.0 7.27821 4.64248 15.7884
255 255 1 0.0 16.3753 5.97051 3.98332
256 256 1 0.0 -11.4823 -18.5624 -3.95465
257 257 1 0.0 -17.8014 -13.5301 -7.29498
258 258 1 0.0 12.395 -3.30099 -5.27101
259 259 1 0.0 11.9523 -13.4551 -8.08142
260 260 1 0.0 3.39873 -0.100764 -11.4262
261 261 1 0.0 -8.56255 13.31 -8.07208
262 262 1 0.0 -7.79275 8.20253 15.6566
263 263 1 0.0 10.2553 6.81596 -7.90254
264 264 1 0.0 -10.2303 -8.44549 1.51177
265 265 1 0.0 8.36997 -3.1278 -15.0698
266 266 1 0.0 -16.0519 1.71033 -12.5736
267 267 1 0.0 -9.92946 -10.1351 -1.98354
268 268 1 0.0 6.06823 -13.1914 8.17301
269 269 1 0.0 -10.1201 0.686468 -1.70309
270 270 1 0.0 -2.88331 -8.91327 4.21459
271 271 1 0.0 14.9317 -6.83025 -3.92693
272 272 1 0.0 -11.8709 -11.3155 -18.3624
273 273 1 0.0 2.64013 17.6876 -2.09735
274 274 1 0.0 -17.0798 1.54197 -17.232
275 275 1 0.0 -18.4462 2.83765 -9.77251
276 276 1 0.0 3.55343 11.0314 14.4611
277 277 1 0.0 5.73963 16.1888 5.17852
278 278 1 0.0 -1.9473 -15.7669 4.42842
279 279 1 0.0 12.8159 8.90207 1.20945
280 280 1 0.0 -8.85731 -14.3339 7.61819
281 281 1 0.0 -4.25812 -6.79646 -11.1779
282 282 1 0.0 -18.0746 8.12899 1.31587
283 283 1 0.0 16.687 -14.6709 10.5832
284 284 1 0.0 -3.68672 13.202 -10.1846
285 285 1 0.0 4.99137 -17.479 -9.97593
286 286 1 0.0 1.29484 16.9048 9.31458
287 287 1 0.0 -16.8297 16.1978 -4.22366
288 288 1 0.0 10.867 -0.437707 -17.6982
289 289 1 0.0 16.1572 10.1685 4.13302
290 290 1 0.0 -2.67156 0.205672 -15.1149
291 291 1 0.0 13.6344 -11.536 10.1855
292 292 1 0.0 0.18217 12.8149 -7.75293
293 293 1 0.0 15.9319 -10.925 3.31292
294 294 1 0.0 -2.14918 -13.3763 10.9017
295 295 1 0.0 -9.86374 -12.4088 -10.7112
296 296 1 0.0 6.93954 11.3746 -3.74449
297 297 1 0.0 17.8661 -0.934059 -2.88786
298 298 1 0.0 -8.67094 4.83663 13.46
299 299 1 0.0 -5.02327 0.952588 0.0933399
300 300 1 0.0 2.11502 2.17584 2.37863
301 301 1 0.0 -8.10457 18.509 -1.12935
302 302 1 0.0 5.18097 -6.42551 -3.57914
303 303 1 0.0 -4.7059 14.6947 -5.48543
304 304 1 0.0 -15.4689 5.95566 -0.932515
305 305 1 0.0 -11.0891 12.7746 5.64483
306 306 1 0.0 -15.9968 -5.51134 2.30454
307 307 1 0.0 11.4589 -5.61511 12.4081
308 308 1 0.0 -13.1934 -11.263 -13.6168
309 309 1 0.0 -10.1388 -11.5066 13.5512
310 310 1 0.0 -13.1365 3.18181 8.75604
311 311 1 0.0 -9.82422 6.06953 9.35319
312 312 1 0.0 -8.19745 -1.96539 0.930759
313 313 1 0.0 -4.52081 5.867 -5.92188
314 314 1 0.0 16.4226 5.45143 -11.3154
315 315 1 0.0 13.7 -14.538 -16.1948
316 316 1 0.0 -6.28639 -15.4882 4.48155
317 317 1 0.0 -9.13501 -12.0549 -14.5328
318 318 1 0.0 -11.1431 11.443 1.455
319 319 1 0.0 -0.862475 -17.3697 9.37966
320 320 1 0.0 -0.0363485 9.84874 5.44689
321 321 1 0.0 8.60798 9.96923 1.39713
322 322 1 0.0 -9.3162 -14.6413 -2.21635
323 323 1 0.0 -18.2563 -7.80661 4.92307
324 324 1 0.0 8.18085 8.59807 7.8507
325 325 1 0.0 -3.13787 -11.1059 -18.6151
326 326 1 0.0 -8.51835 -15.4399 -15.632
327 327 1 0.0 -5.35999 -9.68839 15.5057
328 328 1 0.0 -10.6084 12.2108 -2.6242
329 329 1 0.0 2.92749 -0.574001 5.73901
330 330 1 0.0 13.9424 -15.3885 -0.918265
331 331 1 0.0 14.0125 -8.09371 0.057832
332 332 1 0.0 1.22864 0.126493 -16.1696
333 333 1 0.0 7.54137 18.5882 -7.22254
334 334 1 0.0 -17.9274 17.7493 -10.5256
335 335 1 0.0 -10.9215 13.2456 9.92031
336 336 1 0.0 5.07012 10.0667 10.7368
337 337 1 0.0 5.16334 -3.56139 5.67715
338 338 1 0.0 10.8453 -0.432623 -3.50116
339 339 1 0.0 -14.0757 -4.38643 -5.85935
340 340 1 0.0 6.05545 15.2856 16.1647
341 341 1 0.0 9.81428 -11.3245 -4.18182
342 342 1 0.0 -3.34662 -14.1394 -4.93967
343 343 1 0.0 2.20311 9.2606 -9.63103
344 344 1 0.0 -13.5276 17.9007 -10.8345
345 345 1 0.0 -16.0253 -10.6799 13.7477
346 346 1 0.0 14.9372 15.1435 15.4059
347 347 1 0.0 13.5529 12.3592 -15.3449
348 348 1 0.0 -8.65393 -14.016 17.0522
349 349 1 0.0 -12.0613 -3.77448 -16.7983
350 350 1 0.0 6.7973 10.5428 16.773
351 351 1 0.0 -7.32518 -17.7297 9.10852
352 352 1 0.0 12.6845 -4.55816 8.07761
353 353 1 0.0 -4.50538 -7.01281 10.7322
354 354 1 0.0 -2.72839 -4.64325 -4.74968
355 355 1 0.0 -3.02144 -18.369 -15.752
356 356 1 0.0 7.86459 -10.9851 13.5277
357 357 1 0.0 -5.15113 7.75133 -14.4888
358 358 1 0.0 11.9073 -4.08803 -16.7967
359 359 1 0.0 17.3206 13.4961 -17.4943
360 360 1 0.0 -1.46376 -12.4716 14.8126
361 361 1 0.0 -12.776 17.8034 3.58038
362 362 1 0.0 18.5719 -2.13818 1.10304
363 363 1 0.0 -6.12727 -9.47114 -8.73876
364 364 1 0.0 -14.7244 3.35471 4.78043
365 365 1 0.0 -10.5056 4.036 3.39685
366 366 1 0.0 7.81592 16.6859 0.7899
367 367 1 0.0 -0.604403 -18.3595 -12.6755
368 368 1 0.0 1.51596 -3.2102 -9.3242
369 369 1 0.0 14.8652 6.56316 12.3506
370 370 1 0.0 14.9355 15.7428 -9.95617
371 371 1 0.0 -9.79083 7.72357 -11.7963
372 372 1 0.0 -6.18915 -12.7333 -17.0085
373 373 1 0.0 18.205 -15.988 -11.6171
374 374 1 0.0 -12.7703 -8.49221 -7.27942
375 375 1 0.0 -7.55276 4.5207 -12.1095
376 376 1 0.0 15.2466 13.2838 7.5858
377 377 1 0.0 -4.07822 8.35512 13.9491
378 378 1 0.0 9.18803 13.5847 17.5235
379 379 1 0.0 -18.6294 0.38988 11.8765
380 380 1 0.0 4.36105 -3.0845 14.5165
381 381 1 0.0 2.15926 -8.56812 0.957887
382 382 1 0.0 -17.7599 -9.25091 1.45863
383 383 1 0.0 -1.18826 14.7623 11.3983
384 384 1 0.0 -17.9608 11.0605 17.6526
385 385 1 0.0 8.57025 6.42763 -1.32284
386 386 1 0.0 -0.172627 -16.5207 -6.31241
387 387 1 0.0 -4.96842 -2.38467 -1.51964
388 388 1 0.0 0.295411 2.26464 -12.4652
389 389 1 0.0 -10.5463 -10.594 9.48932
390 390 1 0.0 9.12048 -1.5635 0.460738
391 391 1 0.0 -13.0487 -4.10332 4.76755
392 392 1 0.0 -6.43987 -17.0917 -4.06926
393 393 1 0.0 11.5913 -16.2351 17.2212
394 394 1 0.0 9.11692 -6.08309 0.891586
395 395 1 0.0 -2.53503 4.7872 13.475
396 396 1 0.0 11.9037 10.5623 -6.94517
397 397 1 0.0 -16.5278 -18.5756 1.27103
398 398 1 0.0 13.0742 -1.56347 -9.81618
399 399 1 0.0 6.24537 -7.73785 5.41931
400 400 1 0.0 11.8643 -10.4056 -14.9583
401 401 1 0.0 10.4638 -7.57498 -12.6611
402 402 1 0.0 -0.838297 -9.15276 -15.0057
403 403 1 0.0 17.3726 -4.46441 -1.85323
404 404 1 0.0 7.26472 0.12714 7.11146
405 405 1 0.0 4.4245 9.9311 2.26188
406 406 1 0.0 -5.28718 -5.8541 16.731
407 407 1 0.0 3.47001 14.3207 11.6865
408 408 1 0.0 -5.49725 -14.9306 -1.02096
409 409 1 0.0 12.3186 -14.536 -11.8105
410 410 1 0.0 -5.22618 8.36771 3.74336
411 411 1 0.0 -15.9884 -0.399036 3.51602
412 412 1 0.0 2.63162 8.10348 -17.6957
413 413 1 0.0 4.95392 1.65792 16.8685
414 414 1 0.0 -9.34265 18.06 -13.232
415 415 1 0.0 7.82908 -4.90387 9.09851
416 416 1 0.0 5.96373 18.1674 -14.3506
417 417 1 0.0 -6.52276 -4.412 -5.67314
418 418 1 0.0 -3.91229 5.71306 -1.50797
419 419 1 0.0 -2.44732 -7.03618 -18.1123
420 420 1 0.0 4.83513 -9.34583 -10.3798
421 421 1 0.0 -7.61978 -5.8214 -9.40334
422 422 1 0.0 17.6829 13.429 -3.31496
423 423 1 0.0 -0.267807 8.02639 12.7434
424 424 1 0.0 10.258 -2.60112 10.3726
425 425 1 0.0 11.7706 14.8851 9.29215
426 426 1 0.0 -14.1173 -8.74899 5.16519
427 427 1 0.0 15.9281 2.67692 13.4786
428 428 1 0.0 -12.2018 6.46542 -8.47484
429 429 1 0.0 -14.7174 8.86387 16.1413
430 430 1 0.0 9.93422 5.92627 2.24125
431 431 1 0.0 -14.7673 -16.9373 7.03327
432 432 1 0.0 -5.42817 -4.90658 1.67589
433 433 1 0.0 -7.48822 -7.99429 -12.8441
434 434 1 0.0 14.9538 15.5276 11.5555
435 435 1 0.0 9.07428 -6.22261 -5.4937
436 436 1 0.0 7.15524 7.30666 -5.49093
437 437 1 0.0 2.51537 -16.7016 11.652
438 438 1 0.0 13.6528 10.2706 17.6322
439 439 1 0.0 -2.12692 -17.606 -2.61801
440 440 1 0.0 -8.29721 10.1725 8.17069
441 441 1 0.0 6.49196 -14.5339 11.6226
442 442 1 0.0 -17.4524 7.77292 -12.9835
443 443 1 0.0 -10.405 -8.31256 -15.4904
444 444 1 0.0 -7.13387 16.736 12.2678
445 445 1 0.0 -14.2462 -0.802176 -1.61021
446 446 1 0.0 6.74992 -12.5592 -16.8172
447 447 1 0.0 3.46054 -9.49774 -14.0374
448 448 1 0.0 8.50855 -3.85298 -2.36382
449 449 1 0.0 -3.5479 3.17685 -9.05537
450 450 1 0.0 6.75667 -8.93193 9.57552
451 451 1 0.0 13.7516 -6.78851 5.13995
452 452 1 0.0 -11.1153 -0.757883 -13.0327
453 453 1 0.0 -1.25931 7.24443 16.7822
454 454 1 0.0 0.0836647 -6.47461 3.50874
455 455 1 0.0 -13.9273 2.45913 -18.4774
456 456 1 0.0 3.24918 -9.53502 -2.74251
457 457 1 0.0 -17.6571 -12.5694 3.75701
458 458 1 0.0 13.519 12.6567 -10.8282
459 459 1 0.0 10.3691 8.11694 17.0733
460 460 1 0.0 0.687993 0.744544 8.93062
461 461 1 0.0 -0.375099 12.855 -12.4149
462 462 1 0.0 15.5644 9.69869 -1.69255
463 463 1 0.0 3.34813 -17.2789 7.65981
464 464 1 0.0 -18.4616 -2.62232 -15.0686
465 465 1 0.0 -7.83046 -8.92537 18.5559
466 466 1 0.0 -15.7103 -17.5768 -2.95018
467 467 1 0.0 -13.4924 6.07689 2.34668
468 468 1 0.0 13.3895 -10.9777 -2.44089
469 469 1 0.0 -6.78068 -0.890351 -4.52181
470 470 1 0.0 -18.326 1.63364 15.6831
471 471 1 0.0 -17.6665 -9.35305 -7.32356
472 472 1 0.0 -14.919 -0.0324647 10.4843
473 473 1 0.0 16.1325 -9.29001 7.49119
474 474 1 0.0 9.8835 4.50696 -4.82273
475 475 1 0.0 18.2561 14.2182 -8.63147
476 476 1 0.0 2.12774 15.6011 0.876308
477 477 1 0.0 13.9473 8.30111 -4.99631
478 478 1 0.0 -18.353 15.2188 7.72742
479 479 1 0.0 12.8534 4.0649 -14.6968
480 480 1 0.0 2.85818 6.68745 5.20196
481 481 1 0.0 4.62439 -18.3084 2.36372
482 482 1 0.0 6.4923 6.24205 -17.9115
483 483 1 0.0 9.37775 -4.31377 -11.2826
484 484 1 0.0 -1.0952 -2.80771 6.06647
485 485 1 0.0 16.9852 -11.484 -0.6821
486 486 1 0.0 -17.6374 4.09067 2.05011
487 487 1 0.0 12.6042 12.0517 -3.1177
488 488 1 0.0 9.20766 -3.19383 -7.3318
489 489 1 0.0 -7.14012 -0.293669 -15.3204
490 490 1 0.0 9.49698 -9.64914 -0.854381
491 491 1 0.0 -3.14624 -10.7299 -11.5779
492 492 1 0.0 -4.3082 6.84145 -10.2405
493 493 1 0.0 -7.35078 12.6997 11.484
494 494 1 0.0 13.228 -15.3061 9.0305
495 495 1 0.0 4.46414 6.45772 -14.332
496 496 1 0.0 3.48537 3.29591 -16.3766
497 497 1 0.0 -1.78327 -13.8054 -14.2375
498 498 1 0.0 -2.03396 -0.332658 -10.4282
499 499 1 0.0 16.108 9.65555 -13.9249
500 500 1 0.0 -17.3374 12.7779 4.0878
501 501 1 0.0 -6.99331 11.263 -5.03557
502 502 1 0.0 13.757 4.51931 1.83235
503 503 1 0.0 3.83394 -2.14018 18.2354
504 504 1 0.0 -0.112481 -7.11479 -11.0044
505 505 1 0.0 -9.51905 -4.63172 -13.467
506 506 1 0.0 -7.53505 8.71482 11.9716
507 507 1 0.0 -4.33469 -17.3337 11.7681
508 508 1 0.0 11.7975 11.3635 6.9333
509 509 1 0.0 -0.799634 -1.29725 -1.76917
510 510 1 0.0 0.115678 -11.7645 3.13894
511 511 1 0.0 -3.93093 -10.6302 8.98706
512 512 1 0.0 7.97999 11.1485 5.10311
513 513 1 0.0 -16.0748 8.72527 -8.3129
514 514 1 0.0 5.4392 13.6124 -17.7188
515 515 1 0.0 14.3098 -7.59003 -13.326
516 516 1 0.0 -4.41641 -12.3628 2.53118
517 517 1 0.0 1.2175 10.5468 -0.449033
518 518 1 0.0 -18.2454 -5.0564 11.8917
519 519 1 0.0 13.4937 -7.1383 17.8187
520 520 1 0.0 -3.75982 -18.3317 1.38346
521 521 1 0.0 15.8244 -17.8386 -8.63044
522 522 1 0.0 -7.44388 -4.72206 14.0449
523 523 1 0.0 -8.6735 2.61902 16.7659
524 524 1 0.0 16.4985 5.1427 8.66163
525 525 1 0.0 -5.05184 -14.4312 7.97331
526 526 1 0.0 -18.1042 9.19697 -2.53345
527 527 1 0.0 13.7548 1.29707 9.78776
528 528 1 0.0 10.1562 11.4548 -13.2048
529 529 1 0.0 0.264948 13.8901 -2.83688
530 530 1 0.0 -14.7741 5.06204 -15.3698
531 531 1 0.0 2.6213 -3.09923 8.96419
532 532 1 0.0 -14.3261 8.74188 -17.2703
533 533 1 0.0 17.0756 -5.76817 1.78953
534 534 1 0.0 -4.07413 12.425 13.822
535 535 1 0.0 17.639 -13.7967 -17.3389
536 536 1 0.0 4.22027 7.45916 16.1015
537 537 1 0.0 -2.20089 -6.96033 14.2043
538 538 1 0.0 -9.60827 14.9569 2.66256
539 539 1 0.0 -7.40985 5.80171 5.95791
540 540 1 0.0 0.717451 -2.17241 -13.0274
541 541 1 0.0 10.8525 9.17082 12.4506
542 542 1 0.0 -13.4136 -3.07651 15.9735
543 543 1 0.0 10.3018 -15.2643 5.21953
544 544 1 0.0 6.59614 14.1609 -7.64619
545 545 1 0.0 3.15112 16.553 -6.34391
546 546 1 0.0 5.39943 10.1715 -11.7261
547 547 1 0.0 5.25336 3.80129 -3.65274
548 548 1 0.0 -10.2422 -15.7972 -6.48931
549 549 1 0.0 0.694245 -4.1108 16.6525
550 550 1 0.0 7.60539 -13.881 2.80329
551 551 1 0.0 17.7552 5.45023 -1.71809
552 552 1 0.0 -6.91992 -11.3832 11.1626
553 553 1 0.0 5.14712 2.55573 9.62934
554 554 1 0.0 1.29851 -15.6156 -2.46506
555 555 1 0.0 -3.09336 4.91419 -13.2123
556 556 1 0.0 -12.9934 15.1766 -15.3522
557 557 1 0.0 -1.26024 8.20102 -11.6717
558 558 1 0.0 11.9298 -5.07995 -2.09596
559 559 1 0.0 -1.28647 -6.90137 7.25151
560 560 1 0.0 -7.47996 11.6652 3.57982
561 561 1 0.0 -11.8104 -17.2849 -0.243615
562 562 1 0.0 9.08835 11.9321 9.85602
563 563 1 0.0 -1.93084 -9.14701 0.235402
564 564 1 0.0 -2.65619 10.9202 1.0202
565 565 1 0.0 -11.4316 4.08076 -13.0984
566 566 1 0.0 15.8384 18.4122 2.24005
567 567 1 0.0 -3.07679 5.98688 -17.2755
568 568 1 0.0 -6.79767 16.3069 -10.2964
569 569 1 0.0 11.4894 -18.495 -9.33095
570 570 1 0.0 -6.66578 3.69871 10.1515
571 571 1 0.0 10.7685 2.89954 -0.96535
572 572 1 0.0 -3.33826 17.906 -9.6962
573 573 1 0.0 1.51985 -6.14376 13.3889
574 574 1 0.0 -6.01025 -15.9917 -7.79425
575 575 1 0.0 -16.2888 -2.2742 -10.7782
576 576 1 0.0 -18.1675 -14.8654 -3.79275
577 577 1 0.0 -11.2206 10.695 15.2396
578 578 1 0.0 -14.1867 14.0381 1.71595
579 579 1 0.0 9.10137 -3.36047 5.35901
580 580 1 0.0 -1.25905 2.76304 0.217696
581 581 1 0.0 0.648182 10.9778 18.2345
582 582 1 0.0 3.10432 -0.400378 -2.73684
583 583 1 0.0 -18.1883 -17.6918 8.74207
584 584 1 0.0 -9.76462 -3.29691 -3.4034
585 585 1 0.0 8.01496 3.87835 -14.7046
586 586 1 0.0 7.52512 -9.9284 -13.099
587 587 1 0.0 12.9816 6.21982 -1.88047
588 588 1 0.0 17.4844 1.57097 -14.0221
589 589 1 0.0 15.2841 3.61735 -17.8948
590 590 1 0.0 -18.1956 -8.17547 -2.35934
591 591 1 0.0 10.3552 14.7125 -8.71275
592 592 1 0.0 -6.72973 17.7471 -17.0299
593 593 1 0.0 -14.5426 1.81244 -8.83197
594 594 1 0.0 -11.4251 11.3591 -15.5756
595 595 1 0.0 11.4729 -9.44653 12.2384
596 596 1 0.0 -6.96676 3.50129 -3.36914
597 597 1 0.0 -7.08678 -17.8044 15.2012
598 598 1 0.0 -12.3496 -13.1657 0.637861
599 599 1 0.0 -13.4068 2.77 0.493641
600 600 1 0.0 -2.98605 -2.22652 16.1664
601 601 1 0.0 4.58506 13.0207 -1.6437
602 602 1 0.0 -2.71183 15.817 -13.615
603 603 1 0.0 -15.4845 5.41587 -10.7926
604 604 1 0.0 -6.37483 -13.1329 -12.2518
605 605 1 0.0 3.31274 -10.0735 13.279
606 606 1 0.0 13.169 0.837498 1.49143
607 607 1 0.0 4.05817 -2.8283 -14.6134
608 608 1 0.0 11.0564 -11.9462 15.5402
609 609 1 0.0 13.1521 -3.54073 2.08048
610 610 1 0.0 -10.0289 7.21504 0.743984
611 611 1 0.0 8.3092 -2.63577 13.6282
612 612 1 0.0 16.3505 -0.0264266 -6.45809
613 613 1 0.0 17.8501 9.9119 -10.0568
614 614 1 0.0 6.7307 -10.335 16.8451
615 615 1 0.0 17.9507 -5.03082 -12.3129
616 616 1 0.0 1.71098 18.3653 -16.2315
617 617 1 0.0 -6.13442 0.532145 12.7374
618 618 1 0.0 -0.533659 9.01924 -3.94155
619 619 1 0.0 -18.109 15.6089 13.0853
620 620 1 0.0 -11.5337 -1.79015 -6.7789
621 621 1 0.0 -1.02863 -4.56308 10.1847
622 622 1 0.0 14.7428 1.81203 -10.8216
623 623 1 0.0 -3.69426 -0.80116 -6.89565
624 624 1 0.0 6.1134 13.7503 -13.6489
625 625 1 0.0 -17.5274 -17.4632 -6.58392
626 626 1 0.0 14.0216 -14.5926 13.5331
627 627 1 0.0 -12.456 -17.8821 -15.3205
628 628 1 0.0 7.38105 -5.36793 17.1718
629 629 1 0.0 -5.09712 -14.5011 14.5915
630 630 1 0.0 9.3246 3.61619 6.66136
631 631 1 0.0 -7.19192 14.5036 -0.804795
632 632 1 0.0 1.52733 3.71332 15.2832
633 633 1 0.0 -14.6387 10.0453 3.42403
634 634 1 0.0 17.7796 -12.4342 13.8373
635 635 1 0.0 3.38309 0.672684 13.4655
636 636 1 0.0 -15.7655 10.0058 11.9874
637 637 1 0.0 12.1976 -0.485481 12.9159
638 638 1 0.0 5.81277 -18.1144 13.5328
639 639 1 0.0 12.1139 18.6032 11.7065
640 640 1 0.0 18.3998 5.7139 15.2525
641 641 1 0.0 9.62769 -13.1726 9.63444
642 642 1 0.0 0.192671 -14.6349 7.43486
643 643 1 0.0 -13.7457 -4.08043 -13.3051
644 644 1 0.0 -0.923816 16.7792 -6.04753
645 645 1 0.0 0.247295 18.0097 5.72245
646 646 1 0.0 -14.8917 -9.17424 17.3333
647 647 1 0.0 -7.58659 1.60923 3.29998
648 648 1 0.0 -16.8897 11.9969 -5.89811
649 649 1 0.0 4.39845 5.2308 12.3523
650 650 1 0.0 -7.19134 -12.9459 -5.26136
651 651 1 0.0 4.86009 -0.568431 2.42041
652 652 1 0.0 7.93292 1.42992 -6.19798
653 653 1 0.0 1.62392 -9.94456 -7.96496
654 654 1 0.0 -0.00867086 7.8794 8.45565
655 655 1 0.0 10.2241 17.7733 -2.88788
656 656 1 0.0 12.9895 2.64995 5.46523
657 657 1 0.0 16.4844 16.6193 -5.78005
658 658 1 0.0 -17.3815 -12.3963 7.92245
659 659 1 0.0 -6.81154 -9.86302 5.92169
660 660 1 0.0 2.43104 7.37881 -5.61135
661 661 1 0.0 -4.0865 6.55821 10.5349
662 662 1 0.0 0.295117 -18.1531 0.595132
663 663 1 0.0 -5.55631 1.20564 -11.693
664 664 1 0.0 8.97334 15.5729 6.78535
665 665 1 0.0 2.81614 16.2066 -13.2386
666 666 1 0.0 13.2973 7.79029 5.83829
667 667 1 0.0 -3.88848 9.9629 -2.71028
668 668 1 0.0 -7.584 17.8183 -6.98276
669 669 1 0.0 2.49178 15.1555 17.2794
670 670 1 0.0 0.354058 -1.25729 -5.79083
671 671 1 0.0 -5.65171 -8.84321 1.17713
672 672 1 0.0 -14.1028 -13.7925 -16.6997
673 673 1 0.0 3.79316 -5.76142 -10.9129
674 674 1 0.0 -2.6057 -3.79221 -8.94366
675 675 1 0.0 -4.88544 16.8269 -2.25729
676 676 1 0.0 11.6884 4.22152 -10.9019
677 677 1 0.0 10.327 -15.5609 12.7139
678 678 1 0.0 -13.5414 15.9631 7.0704
679 679 1 0.0 12.0994 -18.2631 -15.243
680 680 1 0.0 -11.9747 -7.16199 10.2596
681 681 1 0.0 15.1538 -6.82241 11.2576
682 682 1 0.0 16.4678 -13.7985 6.89136
683 683 1 0.0 -4.43392 -4.96277 5.36929
684 684 1 0.0 11.2384 -8.33863 8.08536
685 685 1 0.0 7.05459 0.0235011 -13.0588
686 686 1 0.0 5.84972 2.74264 4.7138
687 687 1 0.0 -6.10843 13.5105 -17.1876
688 688 1 0.0 -0.227245 -9.08312 16.404
689 689 1 0.0 -15.9447 14.9338 -12.7154
690 690 1 0.0 -11.7183 -17.7016 14.3159
691 691 1 0.0 -10.4006 -7.66332 5.91007
692 692 1 0.0 1.06706 17.0819 13.5331
693 693 1 0.0 4.32761 -17.2175 -5.54461
694 694 1 0.0 2.61315 -7.10606 8.59024
695 695 1 0.0 1.20787 5.35945 -10.7472
696 696 1 0.0 -18.5672 -9.27487 10.3425
697 697 1 0.0 9.7926 -8.2038 -17.3382
698 698 1 0.0 12.0107 16.0341 -12.5206
699 699 1 0.0 -14.0738 9.61031 -12.8519
700 700 1 0.0 -1.16368 -8.84656 10.8466
701 701 1 0.0 17.9574 7.01718 -6.62262
702 702 1 0.0 -2.27931 -8.14663 -7.53934
703 703 1 0.0 -13.1974 15.3093 -3.7594
704 704 1 0.0 -12.8945 -14.0754 15.8004
705 705 1 0.0 10.2747 -12.641 -17.9287
706 706 1 0.0 -9.96827 9.55645 -7.59491
707 707 1 0.0 -13.0272 -0.378947 6.86168
708 708 1 0.0 0.911188 -5.80316 -6.26754
709 709 1 0.0 4.04749 6.87659 8.86262
710 710 1 0.0 11.5995 -3.24944 16.5522
711 711 1 0.0 2.34202 -17.564 16.3964
712 712 1 0.0 8.41692 7.10733 -12.4964
713 713 1 0.0 14.1733 -1.60658 -1.27937
714 714 1 0.0 -16.1302 -12.3963 -0.952093
715 715 1 0.0 0.395055 14.6963 -16.7754
716 716 1 0.0 -17.0638 -15.9859 13.0002
717 717 1 0.0 -13.9745 2.58819 -3.48616
718 718 1 0.0 12.7361 -11.9508 5.92874
719 719 1 0.0 14.7953 16.1544 -16.0094
720 720 1 0.0 7.13299 2.61153 0.822329
721 721 1 0.0 16.994 8.04555 18.4104
722 722 1 0.0 5.26398 -16.7743 -1.34473
723 723 1 0.0 -17.3687 -11.6683 -14.504
724 724 1 0.0 6.70813 6.75586 4.91392
725 725 1 0.0 -8.67842 -1.63964 5.79289
726 726 1 0.0 7.98166 1.33568 13.8904
727 727 1 0.0 12.9545 15.391 5.62707
728 728 1 0.0 -11.5561 -8.2069 -11.0931
729 729 1 0.0 13.9273 17.7026 18.1303
730 730 1 0.0 2.38621 4.01129 -1.09008
731 731 1 0.0 0.348908 -6.69256 -2.2002
732 732 1 0.0 -4.19836 16.6327 9.77994
733 733 1 0.0 -8.26303 7.52273 -2.91912
734 734 1 0.0 -15.3531 -17.6388 -18.3728
735 735 1 0.0 17.678 13.8717 -12.9871
736 736 1 0.0 -14.555 8.26652 -4.93272
737 737 1 0.0 1.04444 11.5329 10.3516
738 738 1 0.0 -15.8636 -4.62519 -1.50746
739 739 1 0.0 6.21795 -16.3113 6.10681
740 740 1 0.0 -17.2304 -5.53313 -17.7519
741 741 1 0.0 15.0168 -0.457369 -15.9405
742 742 1 0.0 11.286 3.86621 13.9389
743 743 1 0.0 12.3486 -6.1563 -9.57488
744 744 1 0.0 -3.94824 10.7464 10.5661
745 745 1 0.0 11.8221 0.309045 -13.6778
746 746 1 0.0 -10.358 0.772565 10.8749
747 747 1 0.0 1.64621 -14.3378 -9.28066
748 748 1 0.0 -11.3468 -0.549569 18.0482
749 749 1 0.0 4.47803 -15.5465 -17.6352
750 750 1 0.0 15.8536 -12.7333 -9.57478
751 751 1 0.0 5.03978 3.62377 -11.4751
752 752 1 0.0 2.25635 -13.8386 14.1206
753 753 1 0.0 2.27321 -8.63235 -17.3694
754 754 1 0.0 12.7183 -10.8302 -11.0394
755 755 1 0.0 16.9905 -1.65803 -10.0436
756 756 1 0.0 8.89962 10.9355 -9.08091
757 757 1 0.0 -8.75699 16.232 6.45805