LAMMPS data file. CGCMM style. atom_style full generated by VMD/TopoTools v1.7 on Thu Oct 12 16:01:52 EDT 2017
 6 atoms
 6 bonds
 6 angles
 6 dihedrals
 0 impropers
 1 atom types
 1 bond types
 1 angle types
 1 dihedral types
 0 improper types
 -50.033000 49.967000  xlo xhi
 -49.999895 50.000105  ylo yhi
 -49.904430 50.095570  zlo zhi

Pair Coeffs

1  0.1118681 3.88

Bond Coeffs

1  300.9 1.54

Angle Coeffs

1  62.1001124929 114.0

Dihedral Coeffs

1 113.74 -58.35 1.05 0.0 

 Masses

 1 14.026580 # CH2

 Atoms # full

1 1 1 0.000000 1.056360 -0.956880 0.116820 # CH2 
2 1 1 0.000000 -0.344970 -1.454280 -0.217480 # CH2 
3 1 1 0.000000 -1.359700 -0.320530 -0.306900 # CH2 
4 1 1 0.000000 -0.990390 0.832960 0.608800 # CH2 
5 1 1 0.000000 0.344920 1.454490 0.216700 # CH2 
6 1 1 0.000000 1.293700 0.444300 -0.417660 # CH2 

 Bonds

1 1 1 6
2 1 1 2
3 1 2 3
4 1 3 4
5 1 4 5
6 1 5 6

 Angles

1 1 2 1 6
2 1 1 2 3
3 1 2 3 4
4 1 3 4 5
5 1 4 5 6
6 1 1 6 5

 Dihedrals

1 1 2 1 6 5
2 1 6 1 2 3
3 1 1 2 3 4
4 1 2 3 4 5
5 1 3 4 5 6
6 1 4 5 6 1

