LAMMPS data file. CGCMM style. atom_style full generated by VMD/TopoTools v1.7 on Mon Sep 18 15:19:58 EDT 2017
 5 atoms
 4 bonds
 6 angles
 0 dihedrals
 0 impropers
 2 atom types
 1 bond types
 1 angle types
 0 dihedral types
 0 improper types
 -2.066600 2.087001  xlo xhi
 -2.022351 2.059749  ylo yhi
 -1.810750 1.782950  zlo zhi

Pair Coeffs

1  CT 0.1094 3.39967
2  HC 0.0157 2.64953

Bond Coeffs

1  CT-HC 330.6 1.0969

Angle Coeffs

1  HC-CT-HC 39.40 107.58

 Masses

 1 12.011000 # CT
 2 1.008000 # HC

 Atoms # full

1 1 1 -0.240000 0.033201 0.006199 0.015600 # CT ALK
2 1 2 0.060000 0.898201 -0.015800 0.619600 # HC ALK
3 1 2 0.060000 -0.877800 -0.027802 0.603601 # HC ALK
4 1 2 0.060000 -0.025799 0.874199 -0.647400 # HC ALK
5 1 2 0.060000 -0.027800 -0.836802 -0.591398 # HC ALK

 Bonds

1 1 1 2
2 1 1 3
3 1 1 4
4 1 1 5

 Angles

1 1 2 1 3
2 1 2 1 4
3 1 2 1 5
4 1 3 1 4
5 1 3 1 5
6 1 4 1 5

