LAMMPS data file. CGCMM style. atom_style full generated by VMD/TopoTools v1.7 on Mon Oct 16 19:05:29 EDT 2017
 3 atoms
 3 bonds
 3 angles
 12 dihedrals
 0 impropers
 1 atom types
 1 bond types
 1 angle types
 4 dihedral types
 0 improper types
 -50.294700 49.705300  xlo xhi
 -49.189750 50.810250  ylo yhi
 -50.024050 49.975950  zlo zhi

Pair Coeffs

1  0.1118681 3.88

Bond Coeffs

1  300.9 1.54

Angle Coeffs

1  62.1001124929 114.0

Dihedral Coeffs

1  -64.645058 0    -90  0.
2  91.231118  1     0   0.
3  32.821260  2     0   0.
4   2.972552  3     0   0.

Masses

1 12.010700 # C

 Atoms # full

1 1 1 0.000000 -1.022900 0.461200 0.064100 # C 
2 1 1 0.000000 0.028100 1.540900 -0.103300 # C 
3 1 1 0.000000 0.433500 0.079600 -0.112200 # C 

 Bonds

1 1 1 2
2 1 1 3
3 1 2 3

 Angles

1 1 2 1 3
2 1 1 2 3
3 1 1 3 2

 Dihedrals

1 1 3 1 2 3
2 2 3 1 2 3
3 3 3 1 2 3
4 4 3 1 2 3
5 1 2 1 3 2
6 2 2 1 3 2
7 3 2 1 3 2
8 4 2 1 3 2
9  1 1 2 3 1
10 2 1 2 3 1
11 3 1 2 3 1
12 4 1 2 3 1
