LAMMPS data file. CGCMM style. atom_style full generated by VMD/TopoTools v1.7 on Thu Oct 12 15:31:56 EDT 2017
 5 atoms
 5 bonds
 5 angles
 20 dihedrals
 0 impropers
 1 atom types
 1 bond types
 1 angle types
 4 dihedral types
 0 improper types
 -50.041215 49.958785  xlo xhi
 -50.112250 49.887750  ylo yhi
 -50.048840 49.951160  zlo zhi

Pair Coeffs

1  0.1118681 3.88

Bond Coeffs

1  300.9 1.54

Angle Coeffs

1  62.1001124929 114.0

Dihedral Coeffs

1 -64.65168191500193 0 -90 0.0
2 91.24046607995939 1 0 0.0
3 32.82462906104389 2 0 0.0
4 2.972856585259817 3 0 0.0

Masses

1 14.026580 # CH2

Atoms # full

1 1 1 0.000000 -0.483780 1.004460 0.646420 # CH2 
2 1 1 0.000000 0.556540 1.066420 -0.466410 # CH2 
3 1 1 0.000000 0.988400 -0.371770 -0.744100 # CH2 
4 1 1 0.000000 0.002080 -1.290920 -0.025020 # CH2 
5 1 1 0.000000 -1.070830 -0.401020 0.595520 # CH2 

 Bonds

1 1 1 2
2 1 1 5
3 1 2 3
4 1 3 4
5 1 4 5

 Angles

1 1 2 1 5
2 1 1 2 3
3 1 2 3 4
4 1 3 4 5
5 1 1 5 4

 Dihedrals

1 1 5 1 2 3
2 2 5 1 2 3
3 3 5 1 2 3
4 4 5 1 2 3
5 1 2 1 5 4
6 2 2 1 5 4
7 3 2 1 5 4
8 4 2 1 5 4
9  1 1 2 3 4
10 2 1 2 3 4
11 3 1 2 3 4
12 4 1 2 3 4
13 1 2 3 4 5
14 2 2 3 4 5
15 3 2 3 4 5
16 4 2 3 4 5
17 1 3 4 5 1
18 2 3 4 5 1
19 3 3 4 5 1
20 4 3 4 5 1
