LAMMPS data file generated by MolSSI EEX

 3 atoms
 2 atom types
 2 bonds
 1 bond types
 1 angles
 1 angle types
 0 dihedrals
 0 dihedral types
 0 impropers
 0 improper types
-48.460000 51.540000 xlo xhi
-50.000000 50.000000 ylo yhi
-50.000000 50.000000 zlo zhi

Pair Coeffs

 1 0.09141129 3.95000000
 2 0.19474600 3.75000000

Bond Coeffs

 1 300.90000000 1.54000000

Angle Coeffs

 1 62.10011249 114.00000000

 Masses

2 15.03452
1 14.02658

 Atoms

1  1  2 0.00000000  1.59764900 0.00000000 0.00000000
2  1  1 0.00000000  0.00000000 0.00000000 0.00000000
3  1  2 0.00000000 -0.45992000 1.53002000 0.00000000

 Bonds

1 1 1 2
2 1 2 3

 Angles

1 1 1 2 3

