LAMMPS data file generated by MolSSI EEX

 4 atoms
 2 atom types
 3 bonds
 1 bond types
 2 angles
 1 angle types
 1 dihedrals
 1 dihedral types
 0 impropers
 0 improper types
-47.690000 52.310000 xlo xhi
-50.000000 50.000000 ylo yhi
-50.000000 50.000000 zlo zhi

Pair Coeffs

 1 0.09141129 3.95000000
 2 0.19474600 3.75000000

Bond Coeffs

 1 300.90000000 1.54000000

Angle Coeffs

 1 62.10011249 114.00000000

Dihedral Coeffs

 1 1.41103414 -0.27101489 3.14502869 0.00000000

 Masses

2 15.03452
1 14.02658

 Atoms

1  1  2 0.00000000  0.00000000 -0.45970000 -1.53020000
2  1  1 0.00000000  0.00000000  0.00000000  0.00000000
3  1  1 0.00000000  0.00000000  1.59800000  0.00000000
4  1  2 0.00000000 -1.47400000  1.57300000 -0.61670000

 Bonds

1 1 1 2
2 1 2 3
3 1 3 4

 Angles

1 1 1 2 3
2 1 2 3 4

 Dihedrals

1 1 1 2 3 4

