LAMMPS data file generated by MolSSI EEX

 2 atoms
 1 atom types
 1 bonds
 1 bond types
 0 angles
 0 angle types
 0 dihedrals
 0 dihedral types
 0 impropers
 0 improper types
-50.000000 50.000000 xlo xhi
-50.000000 50.000000 ylo yhi
-50.000000 50.000000 zlo zhi

Pair Coeffs

 1 0.19474600 3.75000000

Bond Coeffs

 1 300.90000000 1.54000000

 Masses

1 15.03452

 Atoms

1  1  1 0.00000000 0.00000000 0.00000000 0.00000000
2  1  1 0.00000000 1.59764900 0.00000000 0.00000000

 Bonds

1 1 1 2

