LAMMPS data file generated by MolSSI EEX

 4 atoms
 2 atom types
 3 bonds
 2 bond types
 2 angles
 1 angle types
 4 dihedrals
 4 dihedral types
 0 impropers
 0 improper types
 0.000000 100.000000 xlo xhi
 0.000000 100.000000 ylo yhi
 0.000000 100.000000 zlo zhi


PairIJ Coeffs

 1  1 0.19474595 3.75000000
 1  2 0.13342411 3.85000000
 2  2 0.09141137 3.95000000

Bond Coeffs

 1 300.90000000 1.54000000
 2 300.90000000 1.54000000

Angle Coeffs

 1 62.10011250 114.00004886

Dihedral Coeffs

 1 0.00000000 0.00000000 0.00000000
 2 0.70551689 1.00000000 0.00000000
 3 -0.13550741 2.00000000 -180.00007714
 4 1.57251395 3.00000000 0.00000000

 Masses

1 15.0452
2 14.02658

 Atoms

1  1  1 0.00000000  0.00000000 -0.45970000 -1.53020000
2  1  2 0.00000000  0.00000000  0.00000000  0.00000000
3  1  2 0.00000000  0.00000000  1.59800000  0.00000000
4  1  1 0.00000000 -1.47400000  1.57300000 -0.61670000

 Bonds

1 1 1 2
2 2 2 3
3 1 3 4

 Angles

1 1 1 2 3
2 1 2 3 4

 Dihedrals

1 1 1 2 3 4
2 2 1 2 3 4
3 3 1 2 3 4
4 4 1 2 3 4

