LAMMPS data file. CGCMM style. atom_style full generated by VMD/TopoTools v1.7 on Thu Oct 12 15:32:39 EDT 2017
 8 atoms
 8 bonds
 8 angles
 8 dihedrals
 0 impropers
 1 atom types
 1 bond types
 1 angle types
 1 dihedral types
 0 improper types
 -50.122275 49.877725  xlo xhi
 -49.812235 50.187765  ylo yhi
 -49.955705 50.044295  zlo zhi

Pair Coeffs

1 0.101337  3.89

Bond Coeffs

1  300.9 1.54

Angle Coeffs

1  62.1001124929 114.0

Dihedral Coeffs

1  1.41103414 -0.27101489 3.14502869 0.0

Masses

1 14.026580 # CH2

Atoms # full

1 1 1 0.000000 1.386470 -0.088590 -1.334960 # CH2 
2 1 1 0.000000 1.525100 -0.848260 -0.021470 # CH2 
3 1 1 0.000000 1.150970 -0.017640 1.202650 # CH2 
4 1 1 0.000000 -0.182380 -0.418760 1.822460 # CH2 
5 1 1 0.000000 -1.299600 -0.637550 0.814960 # CH2 
6 1 1 0.000000 -1.769650 0.621980 0.105120 # CH2 
7 1 1 0.000000 -0.744520 1.223790 -0.848800 # CH2 
8 1 1 0.000000 -0.057870 0.187770 -1.733870 # CH2 

Bonds

1 1 1 2
2 1 1 8
3 1 2 3
4 1 3 4
5 1 4 5
6 1 5 6
7 1 6 7
8 1 7 8

Angles

1 1 2 1 8
2 1 1 2 3
3 1 2 3 4
4 1 3 4 5
5 1 4 5 6
6 1 5 6 7
7 1 6 7 8
8 1 1 8 7

Dihedrals

1 1 8 1 2 3
2 1 2 1 8 7
3 1 1 2 3 4
4 1 2 3 4 5
5 1 3 4 5 6
6 1 4 5 6 7
7 1 5 6 7 8
8 1 6 7 8 1

