LAMMPS data file. CGCMM style. atom_style full generated by VMD/TopoTools v1.7 on Thu Oct 12 15:25:03 EDT 2017
 4 atoms
 4 bonds
 4 angles
 16 dihedrals
 0 impropers
 1 atom types
 1 bond types
 1 angle types
 4 dihedral types
 0 improper types
 -50.129250 49.870750  xlo xhi
 -49.299000 50.701000  ylo yhi
 -49.977950 50.022050  zlo zhi

Pair Coeffs

1  0.1118681 3.88

Bond Coeffs

1  300.9 1.54

Angle Coeffs

1  62.1001124929 114.0

Dihedral Coeffs

1   0.997474 0    -90  0.0
2  91.231118 1     0   0.0
3 -32.821260 2    180  0.0
4   2.972552 3     0  0.0

Masses

1 12.010700 

Atoms

1 1 1 0.000000 -0.935100 -0.035500 0.096700
2 1 1 0.000000 -0.868800 1.507200 -0.005400 
3 1 1 0.000000 0.676600 1.437800 -0.052600 
4 1 1 0.000000 0.610100 -0.105200 0.049000 

Bonds

1 1 1 2
2 1 1 4
3 1 2 3
4 1 3 4

 Angles

1 1 2 1 4
2 1 1 2 3
3 1 2 3 4
4 1 1 4 3

 Dihedrals

1 1 4 1 2 3
2 2 4 1 2 3
3 3 4 1 2 3
4 4 4 1 2 3
5 1 2 1 4 3
6 2 2 1 4 3
7 3 2 1 4 3
8 4 2 1 4 3
9  1 1 2 3 4
10 2 1 2 3 4
11 3 1 2 3 4
12 4 1 2 3 4
13 1 2 3 4 1
14 2 2 3 4 1
15 3 2 3 4 1
16 4 2 3 4 1
