LAMMPS data file. CGCMM style. atom_style full generated by VMD/TopoTools v1.7 on Thu Oct 12 15:31:56 EDT 2017
 5 atoms
 5 bonds
 5 angles
 20 dihedrals
 0 impropers
 2 atom types
 2 bond types
 3 angle types
 12 dihedral types
 0 improper types
 -50.041215 49.958785  xlo xhi
 -50.112250 49.887750  ylo yhi
 -50.048840 49.951160  zlo zhi

Pair Coeffs

1 0.37756868395679505 2.200 # O
2 0.11187956266719767 3.880 # C

Bond Coeffs

1  300.9 1.44
2  300.9 1.54

Angle Coeffs

1  49.97817053428103 108.5 # c c o
2  62.10011249289392 105.5 # c c c
3  60.01354871313268 112.0 # c o c

Dihedral Coeffs

1  43.52572044581938   0 -90 0.0 # c c c o
2  48.28308586367499   1 0 0.0
3  16.189747727347417  2 0 0.0
4  0.4888520855440609  3 0 0.0
5  62.38626981126118   0 -90 0.0 # c c c c
6  91.2404660799594    1 0 0.0
7  32.82462906104389   2 0 0.0
8  2.9728565852598177  3 0 0.0
9  43.58533655381255   0 -90 0.0 # c c o c
10 81.09380449952049   1 0 0.0
11 33.48636785976818   2 0 0.0
12 4.753391010656072   3 0 0.0

Masses

1 16.026580 # O
2 14.026580 # CH2

Atoms # full

1 1 1 0.000000 -0.483780 1.004460 0.646420 
2 1 2 0.000000 0.556540 1.066420 -0.466410 
3 1 2 0.000000 0.988400 -0.371770 -0.744100
4 1 2 0.000000 0.002080 -1.290920 -0.025020
5 1 2 0.000000 -1.070830 -0.401020 0.595520

 Bonds

1 1 1 2
2 1 1 5
3 2 2 3
4 2 3 4
5 2 4 5

 Angles

1 3 2 1 5
2 1 1 2 3
3 2 2 3 4
4 2 3 4 5
5 1 1 5 4

 Dihedrals

1 9  5 1 2 3
2 10 5 1 2 3
3 11 5 1 2 3
4 12 5 1 2 3
5 9  2 1 5 4
6 10 2 1 5 4
7 11 2 1 5 4
8 12 2 1 5 4
9  1 1 2 3 4
10 2 1 2 3 4
11 3 1 2 3 4
12 4 1 2 3 4
13 5 2 3 4 5
14 6 2 3 4 5
15 7 2 3 4 5
16 8 2 3 4 5
17 1 3 4 5 1
18 2 3 4 5 1
19 3 3 4 5 1
20 4 3 4 5 1
