LAMMPS data file. CGCMM style. atom_style full generated by VMD/TopoTools v1.7 on Tue Nov 07 10:55:18 EST 2017
 3 atoms
 2 bonds
 1 angles
 0 dihedrals
 0 impropers
 3 atom types
 2 bond types
 1 angle types
 0 dihedral types
 0 improper types
 -49.422625 50.577375  xlo xhi
 -49.998185 50.001815  ylo yhi
 -50.183952 49.816048  zlo zhi

Pair Coeffs

1 0.19474595277771534 3.75
2 0.18480993477885233 3.02
3 0.00000000000000000 0.0 

Bond Coeffs

1 300.9	1.4300
2 300.9	0.9450

Angle Coeffs

1 55.045539713701174 108.5

Masses

1 15.045200 # C.3
2 16.999000 # O.3
3 1.007940 # H

 Atoms # full

1 1 1 0.265000 1.215478 0.010012 -0.007251 # C.3 SUBUNIT
2 1 2 -0.70000 -0.214414 -0.007298 -0.004181 # O.3 SUBUNIT
3 1 3 0.435000 -0.560727 -0.506381 -0.860653 # H SUBUNIT

 Bonds

1 1 1 2
2 2 2 3

 Angles

1 1 1 2 3

