LAMMPS data file. CGCMM style. atom_style full generated by VMD/TopoTools v1.7 on Thu Sep 21 11:08:56 EDT 2017
 2 atoms
 0 bonds
 0 angles
 0 dihedrals
 0 impropers
 1 atom types
 0 bond types
 0 angle types
 0 dihedral types
 0 improper types
 -47.690000 52.310000  xlo xhi
 -50.000000 50.000000  ylo yhi
 -50.000000 50.000000  zlo zhi

Pair Coeffs

1   0.2941062068 3.73

Masses

1 16.0 # CH4

 Atoms # full

1 1 1 0.000000 0.0000000   0.0000000   0.0000000
2 2 1 0.000000 {coordinate}   0.0000000   0.0000000 
