LAMMPS data file. CGCMM style. atom_style full generated by VMD/TopoTools v1.7 on Fri Sep 01 12:46:34 EDT 2017
 1024 atoms
 512 bonds
 0 angles
 0 dihedrals
 0 impropers
 1 atom types
 1 bond types
 0 angle types
 0 dihedral types
 0 improper types
 -39.230000 40.770000  xlo xhi
 -40.000000 40.000000  ylo yhi
 -40.000000 40.000000  zlo zhi


Pair Coeffs

1 0.1947460018 3.75

Bond Coeffs

1 300.9 1.54

Masses

1 15.034520 # CH3

 Atoms # full

1 1 1 0.000000 -35.000000 -35.000000 -35.000000 # CH3 
2 1 1 0.000000 -33.459999 -35.000000 -35.000000 # CH3 
3 1 1 0.000000 -35.000000 -35.000000 -25.000000 # CH3 
4 1 1 0.000000 -33.459999 -35.000000 -25.000000 # CH3 
5 1 1 0.000000 -35.000000 -35.000000 -15.000000 # CH3 
6 1 1 0.000000 -33.459999 -35.000000 -15.000000 # CH3 
7 1 1 0.000000 -35.000000 -35.000000 -5.000000 # CH3 
8 1 1 0.000000 -33.459999 -35.000000 -5.000000 # CH3 
9 1 1 0.000000 -35.000000 -35.000000 5.000000 # CH3 
10 1 1 0.000000 -33.459999 -35.000000 5.000000 # CH3 
11 1 1 0.000000 -35.000000 -35.000000 15.000000 # CH3 
12 1 1 0.000000 -33.459999 -35.000000 15.000000 # CH3 
13 1 1 0.000000 -35.000000 -35.000000 25.000000 # CH3 
14 1 1 0.000000 -33.459999 -35.000000 25.000000 # CH3 
15 1 1 0.000000 -35.000000 -35.000000 35.000000 # CH3 
16 1 1 0.000000 -33.459999 -35.000000 35.000000 # CH3 
17 1 1 0.000000 -35.000000 -25.000000 -35.000000 # CH3 
18 1 1 0.000000 -33.459999 -25.000000 -35.000000 # CH3 
19 1 1 0.000000 -35.000000 -25.000000 -25.000000 # CH3 
20 1 1 0.000000 -33.459999 -25.000000 -25.000000 # CH3 
21 1 1 0.000000 -35.000000 -25.000000 -15.000000 # CH3 
22 1 1 0.000000 -33.459999 -25.000000 -15.000000 # CH3 
23 1 1 0.000000 -35.000000 -25.000000 -5.000000 # CH3 
24 1 1 0.000000 -33.459999 -25.000000 -5.000000 # CH3 
25 1 1 0.000000 -35.000000 -25.000000 5.000000 # CH3 
26 1 1 0.000000 -33.459999 -25.000000 5.000000 # CH3 
27 1 1 0.000000 -35.000000 -25.000000 15.000000 # CH3 
28 1 1 0.000000 -33.459999 -25.000000 15.000000 # CH3 
29 1 1 0.000000 -35.000000 -25.000000 25.000000 # CH3 
30 1 1 0.000000 -33.459999 -25.000000 25.000000 # CH3 
31 1 1 0.000000 -35.000000 -25.000000 35.000000 # CH3 
32 1 1 0.000000 -33.459999 -25.000000 35.000000 # CH3 
33 1 1 0.000000 -35.000000 -15.000000 -35.000000 # CH3 
34 1 1 0.000000 -33.459999 -15.000000 -35.000000 # CH3 
35 1 1 0.000000 -35.000000 -15.000000 -25.000000 # CH3 
36 1 1 0.000000 -33.459999 -15.000000 -25.000000 # CH3 
37 1 1 0.000000 -35.000000 -15.000000 -15.000000 # CH3 
38 1 1 0.000000 -33.459999 -15.000000 -15.000000 # CH3 
39 1 1 0.000000 -35.000000 -15.000000 -5.000000 # CH3 
40 1 1 0.000000 -33.459999 -15.000000 -5.000000 # CH3 
41 1 1 0.000000 -35.000000 -15.000000 5.000000 # CH3 
42 1 1 0.000000 -33.459999 -15.000000 5.000000 # CH3 
43 1 1 0.000000 -35.000000 -15.000000 15.000000 # CH3 
44 1 1 0.000000 -33.459999 -15.000000 15.000000 # CH3 
45 1 1 0.000000 -35.000000 -15.000000 25.000000 # CH3 
46 1 1 0.000000 -33.459999 -15.000000 25.000000 # CH3 
47 1 1 0.000000 -35.000000 -15.000000 35.000000 # CH3 
48 1 1 0.000000 -33.459999 -15.000000 35.000000 # CH3 
49 1 1 0.000000 -35.000000 -5.000000 -35.000000 # CH3 
50 1 1 0.000000 -33.459999 -5.000000 -35.000000 # CH3 
51 1 1 0.000000 -35.000000 -5.000000 -25.000000 # CH3 
52 1 1 0.000000 -33.459999 -5.000000 -25.000000 # CH3 
53 1 1 0.000000 -35.000000 -5.000000 -15.000000 # CH3 
54 1 1 0.000000 -33.459999 -5.000000 -15.000000 # CH3 
55 1 1 0.000000 -35.000000 -5.000000 -5.000000 # CH3 
56 1 1 0.000000 -33.459999 -5.000000 -5.000000 # CH3 
57 1 1 0.000000 -35.000000 -5.000000 5.000000 # CH3 
58 1 1 0.000000 -33.459999 -5.000000 5.000000 # CH3 
59 1 1 0.000000 -35.000000 -5.000000 15.000000 # CH3 
60 1 1 0.000000 -33.459999 -5.000000 15.000000 # CH3 
61 1 1 0.000000 -35.000000 -5.000000 25.000000 # CH3 
62 1 1 0.000000 -33.459999 -5.000000 25.000000 # CH3 
63 1 1 0.000000 -35.000000 -5.000000 35.000000 # CH3 
64 1 1 0.000000 -33.459999 -5.000000 35.000000 # CH3 
65 1 1 0.000000 -35.000000 5.000000 -35.000000 # CH3 
66 1 1 0.000000 -33.459999 5.000000 -35.000000 # CH3 
67 1 1 0.000000 -35.000000 5.000000 -25.000000 # CH3 
68 1 1 0.000000 -33.459999 5.000000 -25.000000 # CH3 
69 1 1 0.000000 -35.000000 5.000000 -15.000000 # CH3 
70 1 1 0.000000 -33.459999 5.000000 -15.000000 # CH3 
71 1 1 0.000000 -35.000000 5.000000 -5.000000 # CH3 
72 1 1 0.000000 -33.459999 5.000000 -5.000000 # CH3 
73 1 1 0.000000 -35.000000 5.000000 5.000000 # CH3 
74 1 1 0.000000 -33.459999 5.000000 5.000000 # CH3 
75 1 1 0.000000 -35.000000 5.000000 15.000000 # CH3 
76 1 1 0.000000 -33.459999 5.000000 15.000000 # CH3 
77 1 1 0.000000 -35.000000 5.000000 25.000000 # CH3 
78 1 1 0.000000 -33.459999 5.000000 25.000000 # CH3 
79 1 1 0.000000 -35.000000 5.000000 35.000000 # CH3 
80 1 1 0.000000 -33.459999 5.000000 35.000000 # CH3 
81 1 1 0.000000 -35.000000 15.000000 -35.000000 # CH3 
82 1 1 0.000000 -33.459999 15.000000 -35.000000 # CH3 
83 1 1 0.000000 -35.000000 15.000000 -25.000000 # CH3 
84 1 1 0.000000 -33.459999 15.000000 -25.000000 # CH3 
85 1 1 0.000000 -35.000000 15.000000 -15.000000 # CH3 
86 1 1 0.000000 -33.459999 15.000000 -15.000000 # CH3 
87 1 1 0.000000 -35.000000 15.000000 -5.000000 # CH3 
88 1 1 0.000000 -33.459999 15.000000 -5.000000 # CH3 
89 1 1 0.000000 -35.000000 15.000000 5.000000 # CH3 
90 1 1 0.000000 -33.459999 15.000000 5.000000 # CH3 
91 1 1 0.000000 -35.000000 15.000000 15.000000 # CH3 
92 1 1 0.000000 -33.459999 15.000000 15.000000 # CH3 
93 1 1 0.000000 -35.000000 15.000000 25.000000 # CH3 
94 1 1 0.000000 -33.459999 15.000000 25.000000 # CH3 
95 1 1 0.000000 -35.000000 15.000000 35.000000 # CH3 
96 1 1 0.000000 -33.459999 15.000000 35.000000 # CH3 
97 1 1 0.000000 -35.000000 25.000000 -35.000000 # CH3 
98 1 1 0.000000 -33.459999 25.000000 -35.000000 # CH3 
99 1 1 0.000000 -35.000000 25.000000 -25.000000 # CH3 
100 1 1 0.000000 -33.459999 25.000000 -25.000000 # CH3 
101 1 1 0.000000 -35.000000 25.000000 -15.000000 # CH3 
102 1 1 0.000000 -33.459999 25.000000 -15.000000 # CH3 
103 1 1 0.000000 -35.000000 25.000000 -5.000000 # CH3 
104 1 1 0.000000 -33.459999 25.000000 -5.000000 # CH3 
105 1 1 0.000000 -35.000000 25.000000 5.000000 # CH3 
106 1 1 0.000000 -33.459999 25.000000 5.000000 # CH3 
107 1 1 0.000000 -35.000000 25.000000 15.000000 # CH3 
108 1 1 0.000000 -33.459999 25.000000 15.000000 # CH3 
109 1 1 0.000000 -35.000000 25.000000 25.000000 # CH3 
110 1 1 0.000000 -33.459999 25.000000 25.000000 # CH3 
111 1 1 0.000000 -35.000000 25.000000 35.000000 # CH3 
112 1 1 0.000000 -33.459999 25.000000 35.000000 # CH3 
113 1 1 0.000000 -35.000000 35.000000 -35.000000 # CH3 
114 1 1 0.000000 -33.459999 35.000000 -35.000000 # CH3 
115 1 1 0.000000 -35.000000 35.000000 -25.000000 # CH3 
116 1 1 0.000000 -33.459999 35.000000 -25.000000 # CH3 
117 1 1 0.000000 -35.000000 35.000000 -15.000000 # CH3 
118 1 1 0.000000 -33.459999 35.000000 -15.000000 # CH3 
119 1 1 0.000000 -35.000000 35.000000 -5.000000 # CH3 
120 1 1 0.000000 -33.459999 35.000000 -5.000000 # CH3 
121 1 1 0.000000 -35.000000 35.000000 5.000000 # CH3 
122 1 1 0.000000 -33.459999 35.000000 5.000000 # CH3 
123 1 1 0.000000 -35.000000 35.000000 15.000000 # CH3 
124 1 1 0.000000 -33.459999 35.000000 15.000000 # CH3 
125 1 1 0.000000 -35.000000 35.000000 25.000000 # CH3 
126 1 1 0.000000 -33.459999 35.000000 25.000000 # CH3 
127 1 1 0.000000 -35.000000 35.000000 35.000000 # CH3 
128 1 1 0.000000 -33.459999 35.000000 35.000000 # CH3 
129 1 1 0.000000 -25.000000 -35.000000 -35.000000 # CH3 
130 1 1 0.000000 -23.459999 -35.000000 -35.000000 # CH3 
131 1 1 0.000000 -25.000000 -35.000000 -25.000000 # CH3 
132 1 1 0.000000 -23.459999 -35.000000 -25.000000 # CH3 
133 1 1 0.000000 -25.000000 -35.000000 -15.000000 # CH3 
134 1 1 0.000000 -23.459999 -35.000000 -15.000000 # CH3 
135 1 1 0.000000 -25.000000 -35.000000 -5.000000 # CH3 
136 1 1 0.000000 -23.459999 -35.000000 -5.000000 # CH3 
137 1 1 0.000000 -25.000000 -35.000000 5.000000 # CH3 
138 1 1 0.000000 -23.459999 -35.000000 5.000000 # CH3 
139 1 1 0.000000 -25.000000 -35.000000 15.000000 # CH3 
140 1 1 0.000000 -23.459999 -35.000000 15.000000 # CH3 
141 1 1 0.000000 -25.000000 -35.000000 25.000000 # CH3 
142 1 1 0.000000 -23.459999 -35.000000 25.000000 # CH3 
143 1 1 0.000000 -25.000000 -35.000000 35.000000 # CH3 
144 1 1 0.000000 -23.459999 -35.000000 35.000000 # CH3 
145 1 1 0.000000 -25.000000 -25.000000 -35.000000 # CH3 
146 1 1 0.000000 -23.459999 -25.000000 -35.000000 # CH3 
147 1 1 0.000000 -25.000000 -25.000000 -25.000000 # CH3 
148 1 1 0.000000 -23.459999 -25.000000 -25.000000 # CH3 
149 1 1 0.000000 -25.000000 -25.000000 -15.000000 # CH3 
150 1 1 0.000000 -23.459999 -25.000000 -15.000000 # CH3 
151 1 1 0.000000 -25.000000 -25.000000 -5.000000 # CH3 
152 1 1 0.000000 -23.459999 -25.000000 -5.000000 # CH3 
153 1 1 0.000000 -25.000000 -25.000000 5.000000 # CH3 
154 1 1 0.000000 -23.459999 -25.000000 5.000000 # CH3 
155 1 1 0.000000 -25.000000 -25.000000 15.000000 # CH3 
156 1 1 0.000000 -23.459999 -25.000000 15.000000 # CH3 
157 1 1 0.000000 -25.000000 -25.000000 25.000000 # CH3 
158 1 1 0.000000 -23.459999 -25.000000 25.000000 # CH3 
159 1 1 0.000000 -25.000000 -25.000000 35.000000 # CH3 
160 1 1 0.000000 -23.459999 -25.000000 35.000000 # CH3 
161 1 1 0.000000 -25.000000 -15.000000 -35.000000 # CH3 
162 1 1 0.000000 -23.459999 -15.000000 -35.000000 # CH3 
163 1 1 0.000000 -25.000000 -15.000000 -25.000000 # CH3 
164 1 1 0.000000 -23.459999 -15.000000 -25.000000 # CH3 
165 1 1 0.000000 -25.000000 -15.000000 -15.000000 # CH3 
166 1 1 0.000000 -23.459999 -15.000000 -15.000000 # CH3 
167 1 1 0.000000 -25.000000 -15.000000 -5.000000 # CH3 
168 1 1 0.000000 -23.459999 -15.000000 -5.000000 # CH3 
169 1 1 0.000000 -25.000000 -15.000000 5.000000 # CH3 
170 1 1 0.000000 -23.459999 -15.000000 5.000000 # CH3 
171 1 1 0.000000 -25.000000 -15.000000 15.000000 # CH3 
172 1 1 0.000000 -23.459999 -15.000000 15.000000 # CH3 
173 1 1 0.000000 -25.000000 -15.000000 25.000000 # CH3 
174 1 1 0.000000 -23.459999 -15.000000 25.000000 # CH3 
175 1 1 0.000000 -25.000000 -15.000000 35.000000 # CH3 
176 1 1 0.000000 -23.459999 -15.000000 35.000000 # CH3 
177 1 1 0.000000 -25.000000 -5.000000 -35.000000 # CH3 
178 1 1 0.000000 -23.459999 -5.000000 -35.000000 # CH3 
179 1 1 0.000000 -25.000000 -5.000000 -25.000000 # CH3 
180 1 1 0.000000 -23.459999 -5.000000 -25.000000 # CH3 
181 1 1 0.000000 -25.000000 -5.000000 -15.000000 # CH3 
182 1 1 0.000000 -23.459999 -5.000000 -15.000000 # CH3 
183 1 1 0.000000 -25.000000 -5.000000 -5.000000 # CH3 
184 1 1 0.000000 -23.459999 -5.000000 -5.000000 # CH3 
185 1 1 0.000000 -25.000000 -5.000000 5.000000 # CH3 
186 1 1 0.000000 -23.459999 -5.000000 5.000000 # CH3 
187 1 1 0.000000 -25.000000 -5.000000 15.000000 # CH3 
188 1 1 0.000000 -23.459999 -5.000000 15.000000 # CH3 
189 1 1 0.000000 -25.000000 -5.000000 25.000000 # CH3 
190 1 1 0.000000 -23.459999 -5.000000 25.000000 # CH3 
191 1 1 0.000000 -25.000000 -5.000000 35.000000 # CH3 
192 1 1 0.000000 -23.459999 -5.000000 35.000000 # CH3 
193 1 1 0.000000 -25.000000 5.000000 -35.000000 # CH3 
194 1 1 0.000000 -23.459999 5.000000 -35.000000 # CH3 
195 1 1 0.000000 -25.000000 5.000000 -25.000000 # CH3 
196 1 1 0.000000 -23.459999 5.000000 -25.000000 # CH3 
197 1 1 0.000000 -25.000000 5.000000 -15.000000 # CH3 
198 1 1 0.000000 -23.459999 5.000000 -15.000000 # CH3 
199 1 1 0.000000 -25.000000 5.000000 -5.000000 # CH3 
200 1 1 0.000000 -23.459999 5.000000 -5.000000 # CH3 
201 1 1 0.000000 -25.000000 5.000000 5.000000 # CH3 
202 1 1 0.000000 -23.459999 5.000000 5.000000 # CH3 
203 1 1 0.000000 -25.000000 5.000000 15.000000 # CH3 
204 1 1 0.000000 -23.459999 5.000000 15.000000 # CH3 
205 1 1 0.000000 -25.000000 5.000000 25.000000 # CH3 
206 1 1 0.000000 -23.459999 5.000000 25.000000 # CH3 
207 1 1 0.000000 -25.000000 5.000000 35.000000 # CH3 
208 1 1 0.000000 -23.459999 5.000000 35.000000 # CH3 
209 1 1 0.000000 -25.000000 15.000000 -35.000000 # CH3 
210 1 1 0.000000 -23.459999 15.000000 -35.000000 # CH3 
211 1 1 0.000000 -25.000000 15.000000 -25.000000 # CH3 
212 1 1 0.000000 -23.459999 15.000000 -25.000000 # CH3 
213 1 1 0.000000 -25.000000 15.000000 -15.000000 # CH3 
214 1 1 0.000000 -23.459999 15.000000 -15.000000 # CH3 
215 1 1 0.000000 -25.000000 15.000000 -5.000000 # CH3 
216 1 1 0.000000 -23.459999 15.000000 -5.000000 # CH3 
217 1 1 0.000000 -25.000000 15.000000 5.000000 # CH3 
218 1 1 0.000000 -23.459999 15.000000 5.000000 # CH3 
219 1 1 0.000000 -25.000000 15.000000 15.000000 # CH3 
220 1 1 0.000000 -23.459999 15.000000 15.000000 # CH3 
221 1 1 0.000000 -25.000000 15.000000 25.000000 # CH3 
222 1 1 0.000000 -23.459999 15.000000 25.000000 # CH3 
223 1 1 0.000000 -25.000000 15.000000 35.000000 # CH3 
224 1 1 0.000000 -23.459999 15.000000 35.000000 # CH3 
225 1 1 0.000000 -25.000000 25.000000 -35.000000 # CH3 
226 1 1 0.000000 -23.459999 25.000000 -35.000000 # CH3 
227 1 1 0.000000 -25.000000 25.000000 -25.000000 # CH3 
228 1 1 0.000000 -23.459999 25.000000 -25.000000 # CH3 
229 1 1 0.000000 -25.000000 25.000000 -15.000000 # CH3 
230 1 1 0.000000 -23.459999 25.000000 -15.000000 # CH3 
231 1 1 0.000000 -25.000000 25.000000 -5.000000 # CH3 
232 1 1 0.000000 -23.459999 25.000000 -5.000000 # CH3 
233 1 1 0.000000 -25.000000 25.000000 5.000000 # CH3 
234 1 1 0.000000 -23.459999 25.000000 5.000000 # CH3 
235 1 1 0.000000 -25.000000 25.000000 15.000000 # CH3 
236 1 1 0.000000 -23.459999 25.000000 15.000000 # CH3 
237 1 1 0.000000 -25.000000 25.000000 25.000000 # CH3 
238 1 1 0.000000 -23.459999 25.000000 25.000000 # CH3 
239 1 1 0.000000 -25.000000 25.000000 35.000000 # CH3 
240 1 1 0.000000 -23.459999 25.000000 35.000000 # CH3 
241 1 1 0.000000 -25.000000 35.000000 -35.000000 # CH3 
242 1 1 0.000000 -23.459999 35.000000 -35.000000 # CH3 
243 1 1 0.000000 -25.000000 35.000000 -25.000000 # CH3 
244 1 1 0.000000 -23.459999 35.000000 -25.000000 # CH3 
245 1 1 0.000000 -25.000000 35.000000 -15.000000 # CH3 
246 1 1 0.000000 -23.459999 35.000000 -15.000000 # CH3 
247 1 1 0.000000 -25.000000 35.000000 -5.000000 # CH3 
248 1 1 0.000000 -23.459999 35.000000 -5.000000 # CH3 
249 1 1 0.000000 -25.000000 35.000000 5.000000 # CH3 
250 1 1 0.000000 -23.459999 35.000000 5.000000 # CH3 
251 1 1 0.000000 -25.000000 35.000000 15.000000 # CH3 
252 1 1 0.000000 -23.459999 35.000000 15.000000 # CH3 
253 1 1 0.000000 -25.000000 35.000000 25.000000 # CH3 
254 1 1 0.000000 -23.459999 35.000000 25.000000 # CH3 
255 1 1 0.000000 -25.000000 35.000000 35.000000 # CH3 
256 1 1 0.000000 -23.459999 35.000000 35.000000 # CH3 
257 1 1 0.000000 -15.000000 -35.000000 -35.000000 # CH3 
258 1 1 0.000000 -13.460000 -35.000000 -35.000000 # CH3 
259 1 1 0.000000 -15.000000 -35.000000 -25.000000 # CH3 
260 1 1 0.000000 -13.460000 -35.000000 -25.000000 # CH3 
261 1 1 0.000000 -15.000000 -35.000000 -15.000000 # CH3 
262 1 1 0.000000 -13.460000 -35.000000 -15.000000 # CH3 
263 1 1 0.000000 -15.000000 -35.000000 -5.000000 # CH3 
264 1 1 0.000000 -13.460000 -35.000000 -5.000000 # CH3 
265 1 1 0.000000 -15.000000 -35.000000 5.000000 # CH3 
266 1 1 0.000000 -13.460000 -35.000000 5.000000 # CH3 
267 1 1 0.000000 -15.000000 -35.000000 15.000000 # CH3 
268 1 1 0.000000 -13.460000 -35.000000 15.000000 # CH3 
269 1 1 0.000000 -15.000000 -35.000000 25.000000 # CH3 
270 1 1 0.000000 -13.460000 -35.000000 25.000000 # CH3 
271 1 1 0.000000 -15.000000 -35.000000 35.000000 # CH3 
272 1 1 0.000000 -13.460000 -35.000000 35.000000 # CH3 
273 1 1 0.000000 -15.000000 -25.000000 -35.000000 # CH3 
274 1 1 0.000000 -13.460000 -25.000000 -35.000000 # CH3 
275 1 1 0.000000 -15.000000 -25.000000 -25.000000 # CH3 
276 1 1 0.000000 -13.460000 -25.000000 -25.000000 # CH3 
277 1 1 0.000000 -15.000000 -25.000000 -15.000000 # CH3 
278 1 1 0.000000 -13.460000 -25.000000 -15.000000 # CH3 
279 1 1 0.000000 -15.000000 -25.000000 -5.000000 # CH3 
280 1 1 0.000000 -13.460000 -25.000000 -5.000000 # CH3 
281 1 1 0.000000 -15.000000 -25.000000 5.000000 # CH3 
282 1 1 0.000000 -13.460000 -25.000000 5.000000 # CH3 
283 1 1 0.000000 -15.000000 -25.000000 15.000000 # CH3 
284 1 1 0.000000 -13.460000 -25.000000 15.000000 # CH3 
285 1 1 0.000000 -15.000000 -25.000000 25.000000 # CH3 
286 1 1 0.000000 -13.460000 -25.000000 25.000000 # CH3 
287 1 1 0.000000 -15.000000 -25.000000 35.000000 # CH3 
288 1 1 0.000000 -13.460000 -25.000000 35.000000 # CH3 
289 1 1 0.000000 -15.000000 -15.000000 -35.000000 # CH3 
290 1 1 0.000000 -13.460000 -15.000000 -35.000000 # CH3 
291 1 1 0.000000 -15.000000 -15.000000 -25.000000 # CH3 
292 1 1 0.000000 -13.460000 -15.000000 -25.000000 # CH3 
293 1 1 0.000000 -15.000000 -15.000000 -15.000000 # CH3 
294 1 1 0.000000 -13.460000 -15.000000 -15.000000 # CH3 
295 1 1 0.000000 -15.000000 -15.000000 -5.000000 # CH3 
296 1 1 0.000000 -13.460000 -15.000000 -5.000000 # CH3 
297 1 1 0.000000 -15.000000 -15.000000 5.000000 # CH3 
298 1 1 0.000000 -13.460000 -15.000000 5.000000 # CH3 
299 1 1 0.000000 -15.000000 -15.000000 15.000000 # CH3 
300 1 1 0.000000 -13.460000 -15.000000 15.000000 # CH3 
301 1 1 0.000000 -15.000000 -15.000000 25.000000 # CH3 
302 1 1 0.000000 -13.460000 -15.000000 25.000000 # CH3 
303 1 1 0.000000 -15.000000 -15.000000 35.000000 # CH3 
304 1 1 0.000000 -13.460000 -15.000000 35.000000 # CH3 
305 1 1 0.000000 -15.000000 -5.000000 -35.000000 # CH3 
306 1 1 0.000000 -13.460000 -5.000000 -35.000000 # CH3 
307 1 1 0.000000 -15.000000 -5.000000 -25.000000 # CH3 
308 1 1 0.000000 -13.460000 -5.000000 -25.000000 # CH3 
309 1 1 0.000000 -15.000000 -5.000000 -15.000000 # CH3 
310 1 1 0.000000 -13.460000 -5.000000 -15.000000 # CH3 
311 1 1 0.000000 -15.000000 -5.000000 -5.000000 # CH3 
312 1 1 0.000000 -13.460000 -5.000000 -5.000000 # CH3 
313 1 1 0.000000 -15.000000 -5.000000 5.000000 # CH3 
314 1 1 0.000000 -13.460000 -5.000000 5.000000 # CH3 
315 1 1 0.000000 -15.000000 -5.000000 15.000000 # CH3 
316 1 1 0.000000 -13.460000 -5.000000 15.000000 # CH3 
317 1 1 0.000000 -15.000000 -5.000000 25.000000 # CH3 
318 1 1 0.000000 -13.460000 -5.000000 25.000000 # CH3 
319 1 1 0.000000 -15.000000 -5.000000 35.000000 # CH3 
320 1 1 0.000000 -13.460000 -5.000000 35.000000 # CH3 
321 1 1 0.000000 -15.000000 5.000000 -35.000000 # CH3 
322 1 1 0.000000 -13.460000 5.000000 -35.000000 # CH3 
323 1 1 0.000000 -15.000000 5.000000 -25.000000 # CH3 
324 1 1 0.000000 -13.460000 5.000000 -25.000000 # CH3 
325 1 1 0.000000 -15.000000 5.000000 -15.000000 # CH3 
326 1 1 0.000000 -13.460000 5.000000 -15.000000 # CH3 
327 1 1 0.000000 -15.000000 5.000000 -5.000000 # CH3 
328 1 1 0.000000 -13.460000 5.000000 -5.000000 # CH3 
329 1 1 0.000000 -15.000000 5.000000 5.000000 # CH3 
330 1 1 0.000000 -13.460000 5.000000 5.000000 # CH3 
331 1 1 0.000000 -15.000000 5.000000 15.000000 # CH3 
332 1 1 0.000000 -13.460000 5.000000 15.000000 # CH3 
333 1 1 0.000000 -15.000000 5.000000 25.000000 # CH3 
334 1 1 0.000000 -13.460000 5.000000 25.000000 # CH3 
335 1 1 0.000000 -15.000000 5.000000 35.000000 # CH3 
336 1 1 0.000000 -13.460000 5.000000 35.000000 # CH3 
337 1 1 0.000000 -15.000000 15.000000 -35.000000 # CH3 
338 1 1 0.000000 -13.460000 15.000000 -35.000000 # CH3 
339 1 1 0.000000 -15.000000 15.000000 -25.000000 # CH3 
340 1 1 0.000000 -13.460000 15.000000 -25.000000 # CH3 
341 1 1 0.000000 -15.000000 15.000000 -15.000000 # CH3 
342 1 1 0.000000 -13.460000 15.000000 -15.000000 # CH3 
343 1 1 0.000000 -15.000000 15.000000 -5.000000 # CH3 
344 1 1 0.000000 -13.460000 15.000000 -5.000000 # CH3 
345 1 1 0.000000 -15.000000 15.000000 5.000000 # CH3 
346 1 1 0.000000 -13.460000 15.000000 5.000000 # CH3 
347 1 1 0.000000 -15.000000 15.000000 15.000000 # CH3 
348 1 1 0.000000 -13.460000 15.000000 15.000000 # CH3 
349 1 1 0.000000 -15.000000 15.000000 25.000000 # CH3 
350 1 1 0.000000 -13.460000 15.000000 25.000000 # CH3 
351 1 1 0.000000 -15.000000 15.000000 35.000000 # CH3 
352 1 1 0.000000 -13.460000 15.000000 35.000000 # CH3 
353 1 1 0.000000 -15.000000 25.000000 -35.000000 # CH3 
354 1 1 0.000000 -13.460000 25.000000 -35.000000 # CH3 
355 1 1 0.000000 -15.000000 25.000000 -25.000000 # CH3 
356 1 1 0.000000 -13.460000 25.000000 -25.000000 # CH3 
357 1 1 0.000000 -15.000000 25.000000 -15.000000 # CH3 
358 1 1 0.000000 -13.460000 25.000000 -15.000000 # CH3 
359 1 1 0.000000 -15.000000 25.000000 -5.000000 # CH3 
360 1 1 0.000000 -13.460000 25.000000 -5.000000 # CH3 
361 1 1 0.000000 -15.000000 25.000000 5.000000 # CH3 
362 1 1 0.000000 -13.460000 25.000000 5.000000 # CH3 
363 1 1 0.000000 -15.000000 25.000000 15.000000 # CH3 
364 1 1 0.000000 -13.460000 25.000000 15.000000 # CH3 
365 1 1 0.000000 -15.000000 25.000000 25.000000 # CH3 
366 1 1 0.000000 -13.460000 25.000000 25.000000 # CH3 
367 1 1 0.000000 -15.000000 25.000000 35.000000 # CH3 
368 1 1 0.000000 -13.460000 25.000000 35.000000 # CH3 
369 1 1 0.000000 -15.000000 35.000000 -35.000000 # CH3 
370 1 1 0.000000 -13.460000 35.000000 -35.000000 # CH3 
371 1 1 0.000000 -15.000000 35.000000 -25.000000 # CH3 
372 1 1 0.000000 -13.460000 35.000000 -25.000000 # CH3 
373 1 1 0.000000 -15.000000 35.000000 -15.000000 # CH3 
374 1 1 0.000000 -13.460000 35.000000 -15.000000 # CH3 
375 1 1 0.000000 -15.000000 35.000000 -5.000000 # CH3 
376 1 1 0.000000 -13.460000 35.000000 -5.000000 # CH3 
377 1 1 0.000000 -15.000000 35.000000 5.000000 # CH3 
378 1 1 0.000000 -13.460000 35.000000 5.000000 # CH3 
379 1 1 0.000000 -15.000000 35.000000 15.000000 # CH3 
380 1 1 0.000000 -13.460000 35.000000 15.000000 # CH3 
381 1 1 0.000000 -15.000000 35.000000 25.000000 # CH3 
382 1 1 0.000000 -13.460000 35.000000 25.000000 # CH3 
383 1 1 0.000000 -15.000000 35.000000 35.000000 # CH3 
384 1 1 0.000000 -13.460000 35.000000 35.000000 # CH3 
385 1 1 0.000000 -5.000000 -35.000000 -35.000000 # CH3 
386 1 1 0.000000 -3.460000 -35.000000 -35.000000 # CH3 
387 1 1 0.000000 -5.000000 -35.000000 -25.000000 # CH3 
388 1 1 0.000000 -3.460000 -35.000000 -25.000000 # CH3 
389 1 1 0.000000 -5.000000 -35.000000 -15.000000 # CH3 
390 1 1 0.000000 -3.460000 -35.000000 -15.000000 # CH3 
391 1 1 0.000000 -5.000000 -35.000000 -5.000000 # CH3 
392 1 1 0.000000 -3.460000 -35.000000 -5.000000 # CH3 
393 1 1 0.000000 -5.000000 -35.000000 5.000000 # CH3 
394 1 1 0.000000 -3.460000 -35.000000 5.000000 # CH3 
395 1 1 0.000000 -5.000000 -35.000000 15.000000 # CH3 
396 1 1 0.000000 -3.460000 -35.000000 15.000000 # CH3 
397 1 1 0.000000 -5.000000 -35.000000 25.000000 # CH3 
398 1 1 0.000000 -3.460000 -35.000000 25.000000 # CH3 
399 1 1 0.000000 -5.000000 -35.000000 35.000000 # CH3 
400 1 1 0.000000 -3.460000 -35.000000 35.000000 # CH3 
401 1 1 0.000000 -5.000000 -25.000000 -35.000000 # CH3 
402 1 1 0.000000 -3.460000 -25.000000 -35.000000 # CH3 
403 1 1 0.000000 -5.000000 -25.000000 -25.000000 # CH3 
404 1 1 0.000000 -3.460000 -25.000000 -25.000000 # CH3 
405 1 1 0.000000 -5.000000 -25.000000 -15.000000 # CH3 
406 1 1 0.000000 -3.460000 -25.000000 -15.000000 # CH3 
407 1 1 0.000000 -5.000000 -25.000000 -5.000000 # CH3 
408 1 1 0.000000 -3.460000 -25.000000 -5.000000 # CH3 
409 1 1 0.000000 -5.000000 -25.000000 5.000000 # CH3 
410 1 1 0.000000 -3.460000 -25.000000 5.000000 # CH3 
411 1 1 0.000000 -5.000000 -25.000000 15.000000 # CH3 
412 1 1 0.000000 -3.460000 -25.000000 15.000000 # CH3 
413 1 1 0.000000 -5.000000 -25.000000 25.000000 # CH3 
414 1 1 0.000000 -3.460000 -25.000000 25.000000 # CH3 
415 1 1 0.000000 -5.000000 -25.000000 35.000000 # CH3 
416 1 1 0.000000 -3.460000 -25.000000 35.000000 # CH3 
417 1 1 0.000000 -5.000000 -15.000000 -35.000000 # CH3 
418 1 1 0.000000 -3.460000 -15.000000 -35.000000 # CH3 
419 1 1 0.000000 -5.000000 -15.000000 -25.000000 # CH3 
420 1 1 0.000000 -3.460000 -15.000000 -25.000000 # CH3 
421 1 1 0.000000 -5.000000 -15.000000 -15.000000 # CH3 
422 1 1 0.000000 -3.460000 -15.000000 -15.000000 # CH3 
423 1 1 0.000000 -5.000000 -15.000000 -5.000000 # CH3 
424 1 1 0.000000 -3.460000 -15.000000 -5.000000 # CH3 
425 1 1 0.000000 -5.000000 -15.000000 5.000000 # CH3 
426 1 1 0.000000 -3.460000 -15.000000 5.000000 # CH3 
427 1 1 0.000000 -5.000000 -15.000000 15.000000 # CH3 
428 1 1 0.000000 -3.460000 -15.000000 15.000000 # CH3 
429 1 1 0.000000 -5.000000 -15.000000 25.000000 # CH3 
430 1 1 0.000000 -3.460000 -15.000000 25.000000 # CH3 
431 1 1 0.000000 -5.000000 -15.000000 35.000000 # CH3 
432 1 1 0.000000 -3.460000 -15.000000 35.000000 # CH3 
433 1 1 0.000000 -5.000000 -5.000000 -35.000000 # CH3 
434 1 1 0.000000 -3.460000 -5.000000 -35.000000 # CH3 
435 1 1 0.000000 -5.000000 -5.000000 -25.000000 # CH3 
436 1 1 0.000000 -3.460000 -5.000000 -25.000000 # CH3 
437 1 1 0.000000 -5.000000 -5.000000 -15.000000 # CH3 
438 1 1 0.000000 -3.460000 -5.000000 -15.000000 # CH3 
439 1 1 0.000000 -5.000000 -5.000000 -5.000000 # CH3 
440 1 1 0.000000 -3.460000 -5.000000 -5.000000 # CH3 
441 1 1 0.000000 -5.000000 -5.000000 5.000000 # CH3 
442 1 1 0.000000 -3.460000 -5.000000 5.000000 # CH3 
443 1 1 0.000000 -5.000000 -5.000000 15.000000 # CH3 
444 1 1 0.000000 -3.460000 -5.000000 15.000000 # CH3 
445 1 1 0.000000 -5.000000 -5.000000 25.000000 # CH3 
446 1 1 0.000000 -3.460000 -5.000000 25.000000 # CH3 
447 1 1 0.000000 -5.000000 -5.000000 35.000000 # CH3 
448 1 1 0.000000 -3.460000 -5.000000 35.000000 # CH3 
449 1 1 0.000000 -5.000000 5.000000 -35.000000 # CH3 
450 1 1 0.000000 -3.460000 5.000000 -35.000000 # CH3 
451 1 1 0.000000 -5.000000 5.000000 -25.000000 # CH3 
452 1 1 0.000000 -3.460000 5.000000 -25.000000 # CH3 
453 1 1 0.000000 -5.000000 5.000000 -15.000000 # CH3 
454 1 1 0.000000 -3.460000 5.000000 -15.000000 # CH3 
455 1 1 0.000000 -5.000000 5.000000 -5.000000 # CH3 
456 1 1 0.000000 -3.460000 5.000000 -5.000000 # CH3 
457 1 1 0.000000 -5.000000 5.000000 5.000000 # CH3 
458 1 1 0.000000 -3.460000 5.000000 5.000000 # CH3 
459 1 1 0.000000 -5.000000 5.000000 15.000000 # CH3 
460 1 1 0.000000 -3.460000 5.000000 15.000000 # CH3 
461 1 1 0.000000 -5.000000 5.000000 25.000000 # CH3 
462 1 1 0.000000 -3.460000 5.000000 25.000000 # CH3 
463 1 1 0.000000 -5.000000 5.000000 35.000000 # CH3 
464 1 1 0.000000 -3.460000 5.000000 35.000000 # CH3 
465 1 1 0.000000 -5.000000 15.000000 -35.000000 # CH3 
466 1 1 0.000000 -3.460000 15.000000 -35.000000 # CH3 
467 1 1 0.000000 -5.000000 15.000000 -25.000000 # CH3 
468 1 1 0.000000 -3.460000 15.000000 -25.000000 # CH3 
469 1 1 0.000000 -5.000000 15.000000 -15.000000 # CH3 
470 1 1 0.000000 -3.460000 15.000000 -15.000000 # CH3 
471 1 1 0.000000 -5.000000 15.000000 -5.000000 # CH3 
472 1 1 0.000000 -3.460000 15.000000 -5.000000 # CH3 
473 1 1 0.000000 -5.000000 15.000000 5.000000 # CH3 
474 1 1 0.000000 -3.460000 15.000000 5.000000 # CH3 
475 1 1 0.000000 -5.000000 15.000000 15.000000 # CH3 
476 1 1 0.000000 -3.460000 15.000000 15.000000 # CH3 
477 1 1 0.000000 -5.000000 15.000000 25.000000 # CH3 
478 1 1 0.000000 -3.460000 15.000000 25.000000 # CH3 
479 1 1 0.000000 -5.000000 15.000000 35.000000 # CH3 
480 1 1 0.000000 -3.460000 15.000000 35.000000 # CH3 
481 1 1 0.000000 -5.000000 25.000000 -35.000000 # CH3 
482 1 1 0.000000 -3.460000 25.000000 -35.000000 # CH3 
483 1 1 0.000000 -5.000000 25.000000 -25.000000 # CH3 
484 1 1 0.000000 -3.460000 25.000000 -25.000000 # CH3 
485 1 1 0.000000 -5.000000 25.000000 -15.000000 # CH3 
486 1 1 0.000000 -3.460000 25.000000 -15.000000 # CH3 
487 1 1 0.000000 -5.000000 25.000000 -5.000000 # CH3 
488 1 1 0.000000 -3.460000 25.000000 -5.000000 # CH3 
489 1 1 0.000000 -5.000000 25.000000 5.000000 # CH3 
490 1 1 0.000000 -3.460000 25.000000 5.000000 # CH3 
491 1 1 0.000000 -5.000000 25.000000 15.000000 # CH3 
492 1 1 0.000000 -3.460000 25.000000 15.000000 # CH3 
493 1 1 0.000000 -5.000000 25.000000 25.000000 # CH3 
494 1 1 0.000000 -3.460000 25.000000 25.000000 # CH3 
495 1 1 0.000000 -5.000000 25.000000 35.000000 # CH3 
496 1 1 0.000000 -3.460000 25.000000 35.000000 # CH3 
497 1 1 0.000000 -5.000000 35.000000 -35.000000 # CH3 
498 1 1 0.000000 -3.460000 35.000000 -35.000000 # CH3 
499 1 1 0.000000 -5.000000 35.000000 -25.000000 # CH3 
500 1 1 0.000000 -3.460000 35.000000 -25.000000 # CH3 
501 1 1 0.000000 -5.000000 35.000000 -15.000000 # CH3 
502 1 1 0.000000 -3.460000 35.000000 -15.000000 # CH3 
503 1 1 0.000000 -5.000000 35.000000 -5.000000 # CH3 
504 1 1 0.000000 -3.460000 35.000000 -5.000000 # CH3 
505 1 1 0.000000 -5.000000 35.000000 5.000000 # CH3 
506 1 1 0.000000 -3.460000 35.000000 5.000000 # CH3 
507 1 1 0.000000 -5.000000 35.000000 15.000000 # CH3 
508 1 1 0.000000 -3.460000 35.000000 15.000000 # CH3 
509 1 1 0.000000 -5.000000 35.000000 25.000000 # CH3 
510 1 1 0.000000 -3.460000 35.000000 25.000000 # CH3 
511 1 1 0.000000 -5.000000 35.000000 35.000000 # CH3 
512 1 1 0.000000 -3.460000 35.000000 35.000000 # CH3 
513 1 1 0.000000 5.000000 -35.000000 -35.000000 # CH3 
514 1 1 0.000000 6.540000 -35.000000 -35.000000 # CH3 
515 1 1 0.000000 5.000000 -35.000000 -25.000000 # CH3 
516 1 1 0.000000 6.540000 -35.000000 -25.000000 # CH3 
517 1 1 0.000000 5.000000 -35.000000 -15.000000 # CH3 
518 1 1 0.000000 6.540000 -35.000000 -15.000000 # CH3 
519 1 1 0.000000 5.000000 -35.000000 -5.000000 # CH3 
520 1 1 0.000000 6.540000 -35.000000 -5.000000 # CH3 
521 1 1 0.000000 5.000000 -35.000000 5.000000 # CH3 
522 1 1 0.000000 6.540000 -35.000000 5.000000 # CH3 
523 1 1 0.000000 5.000000 -35.000000 15.000000 # CH3 
524 1 1 0.000000 6.540000 -35.000000 15.000000 # CH3 
525 1 1 0.000000 5.000000 -35.000000 25.000000 # CH3 
526 1 1 0.000000 6.540000 -35.000000 25.000000 # CH3 
527 1 1 0.000000 5.000000 -35.000000 35.000000 # CH3 
528 1 1 0.000000 6.540000 -35.000000 35.000000 # CH3 
529 1 1 0.000000 5.000000 -25.000000 -35.000000 # CH3 
530 1 1 0.000000 6.540000 -25.000000 -35.000000 # CH3 
531 1 1 0.000000 5.000000 -25.000000 -25.000000 # CH3 
532 1 1 0.000000 6.540000 -25.000000 -25.000000 # CH3 
533 1 1 0.000000 5.000000 -25.000000 -15.000000 # CH3 
534 1 1 0.000000 6.540000 -25.000000 -15.000000 # CH3 
535 1 1 0.000000 5.000000 -25.000000 -5.000000 # CH3 
536 1 1 0.000000 6.540000 -25.000000 -5.000000 # CH3 
537 1 1 0.000000 5.000000 -25.000000 5.000000 # CH3 